[ moleculetype ]
; Name            nrexcl
SDPC                3

[ atoms ]
;   nr       type  resnr residue  atom   cgnr     charge       mass  typeB    chargeB      massB
; residue   1 SDPC rtp SDPC q  0.0
     1        NTL      1   SDPC      N      1       -0.6     14.007
     2       CTL2      1   SDPC    C12      1       -0.1     12.011
     3         HL      1   SDPC   H12A      1       0.25      1.008
     4         HL      1   SDPC   H12B      1       0.25      1.008
     5       CTL5      1   SDPC    C13      1      -0.35     12.011
     6         HL      1   SDPC   H13A      1       0.25      1.008
     7         HL      1   SDPC   H13B      1       0.25      1.008
     8         HL      1   SDPC   H13C      1       0.25      1.008
     9       CTL5      1   SDPC    C14      1      -0.35     12.011
    10         HL      1   SDPC   H14A      1       0.25      1.008
    11         HL      1   SDPC   H14B      1       0.25      1.008
    12         HL      1   SDPC   H14C      1       0.25      1.008
    13       CTL5      1   SDPC    C15      1      -0.35     12.011
    14         HL      1   SDPC   H15A      1       0.25      1.008
    15         HL      1   SDPC   H15B      1       0.25      1.008
    16         HL      1   SDPC   H15C      1       0.25      1.008
    17       CTL2      1   SDPC    C11      2      -0.08     12.011
    18       HAL2      1   SDPC   H11A      2       0.09      1.008
    19       HAL2      1   SDPC   H11B      2       0.09      1.008
    20         PL      1   SDPC      P      2        1.5     30.974
    21        O2L      1   SDPC    O13      2      -0.78    15.9994
    22        O2L      1   SDPC    O14      2      -0.78    15.9994
    23       OSLP      1   SDPC    O12      2      -0.57    15.9994
    24       OSLP      1   SDPC    O11      2      -0.57    15.9994
    25       CTL2      1   SDPC     C1      2      -0.08     12.011
    26       HAL2      1   SDPC     HA      2       0.09      1.008
    27       HAL2      1   SDPC     HB      2       0.09      1.008
    28       CTL1      1   SDPC     C2      3       0.17     12.011
    29       HAL1      1   SDPC     HS      3       0.09      1.008
    30        OSL      1   SDPC    O21      3      -0.49    15.9994
    31         CL      1   SDPC    C21      3        0.9     12.011
    32        OBL      1   SDPC    O22      3      -0.63    15.9994
    33       CTL2      1   SDPC    C22      3      -0.22     12.011
    34       HAL2      1   SDPC    H2R      3       0.09      1.008
    35       HAL2      1   SDPC    H2S      3       0.09      1.008
    36       CTL2      1   SDPC     C3      4       0.08     12.011
    37       HAL2      1   SDPC     HX      4       0.09      1.008
    38       HAL2      1   SDPC     HY      4       0.09      1.008
    39        OSL      1   SDPC    O31      4      -0.49    15.9994
    40         CL      1   SDPC    C31      4        0.9     12.011
    41        OBL      1   SDPC    O32      4      -0.63    15.9994
    42       CTL2      1   SDPC    C32      4      -0.22     12.011
    43       HAL2      1   SDPC    H2X      4       0.09      1.008
    44       HAL2      1   SDPC    H2Y      4       0.09      1.008
    45       CTL2      1   SDPC    C23      5      -0.18     12.011
    46       HAL2      1   SDPC    H3R      5       0.09      1.008
    47       HAL2      1   SDPC    H3S      5       0.09      1.008
    48       CEL1      1   SDPC    C24      6      -0.15     12.011
    49       HEL1      1   SDPC    H4R      6       0.15      1.008
    50       CEL1      1   SDPC    C25      7      -0.15     12.011
    51       HEL1      1   SDPC    H5R      7       0.15      1.008
    52       CTL2      1   SDPC    C26      8      -0.18     12.011
    53       HAL2      1   SDPC    H6R      8       0.09      1.008
    54       HAL2      1   SDPC    H6S      8       0.09      1.008
    55       CEL1      1   SDPC    C27      9      -0.15     12.011
    56       HEL1      1   SDPC    H7R      9       0.15      1.008
    57       CEL1      1   SDPC    C28     10      -0.15     12.011
    58       HEL1      1   SDPC    H8R     10       0.15      1.008
    59       CTL2      1   SDPC    C29     11      -0.18     12.011
    60       HAL2      1   SDPC    H9R     11       0.09      1.008
    61       HAL2      1   SDPC    H9S     11       0.09      1.008
    62       CEL1      1   SDPC   C210     12      -0.15     12.011
    63       HEL1      1   SDPC   H10R     12       0.15      1.008
    64       CEL1      1   SDPC   C211     13      -0.15     12.011
    65       HEL1      1   SDPC   H11R     13       0.15      1.008
    66       CTL2      1   SDPC   C212     14      -0.18     12.011
    67       HAL2      1   SDPC   H12R     14       0.09      1.008
    68       HAL2      1   SDPC   H12S     14       0.09      1.008
    69       CEL1      1   SDPC   C213     15      -0.15     12.011
    70       HEL1      1   SDPC   H13R     15       0.15      1.008
    71       CEL1      1   SDPC   C214     16      -0.15     12.011
    72       HEL1      1   SDPC   H14R     16       0.15      1.008
    73       CTL2      1   SDPC   C215     17      -0.18     12.011
    74       HAL2      1   SDPC   H15R     17       0.09      1.008
    75       HAL2      1   SDPC   H15S     17       0.09      1.008
    76       CEL1      1   SDPC   C216     18      -0.15     12.011
    77       HEL1      1   SDPC   H16R     18       0.15      1.008
    78       CEL1      1   SDPC   C217     19      -0.15     12.011
    79       HEL1      1   SDPC   H17R     19       0.15      1.008
    80       CTL2      1   SDPC   C218     20      -0.18     12.011
    81       HAL2      1   SDPC   H18R     20       0.09      1.008
    82       HAL2      1   SDPC   H18S     20       0.09      1.008
    83       CEL1      1   SDPC   C219     21      -0.15     12.011
    84       HEL1      1   SDPC   H19R     21       0.15      1.008
    85       CEL1      1   SDPC   C220     22      -0.15     12.011
    86       HEL1      1   SDPC   H20R     22       0.15      1.008
    87       CTL2      1   SDPC   C221     23      -0.18     12.011
    88       HAL2      1   SDPC   H21R     23       0.09      1.008
    89       HAL2      1   SDPC   H21S     23       0.09      1.008
    90       CTL3      1   SDPC   C222     24      -0.27     12.011
    91       HAL3      1   SDPC   H22R     24       0.09      1.008
    92       HAL3      1   SDPC   H22S     24       0.09      1.008
    93       HAL3      1   SDPC   H22T     24       0.09      1.008
    94       CTL2      1   SDPC    C33     25      -0.18     12.011
    95       HAL2      1   SDPC    H3X     25       0.09      1.008
    96       HAL2      1   SDPC    H3Y     25       0.09      1.008
    97       CTL2      1   SDPC    C34     26      -0.18     12.011
    98       HAL2      1   SDPC    H4X     26       0.09      1.008
    99       HAL2      1   SDPC    H4Y     26       0.09      1.008
   100       CTL2      1   SDPC    C35     27      -0.18     12.011
   101       HAL2      1   SDPC    H5X     27       0.09      1.008
   102       HAL2      1   SDPC    H5Y     27       0.09      1.008
   103       CTL2      1   SDPC    C36     28      -0.18     12.011
   104       HAL2      1   SDPC    H6X     28       0.09      1.008
   105       HAL2      1   SDPC    H6Y     28       0.09      1.008
   106       CTL2      1   SDPC    C37     29      -0.18     12.011
   107       HAL2      1   SDPC    H7X     29       0.09      1.008
   108       HAL2      1   SDPC    H7Y     29       0.09      1.008
   109       CTL2      1   SDPC    C38     30      -0.18     12.011
   110       HAL2      1   SDPC    H8X     30       0.09      1.008
   111       HAL2      1   SDPC    H8Y     30       0.09      1.008
   112       CTL2      1   SDPC    C39     31      -0.18     12.011
   113       HAL2      1   SDPC    H9X     31       0.09      1.008
   114       HAL2      1   SDPC    H9Y     31       0.09      1.008
   115       CTL2      1   SDPC   C310     32      -0.18     12.011
   116       HAL2      1   SDPC   H10X     32       0.09      1.008
   117       HAL2      1   SDPC   H10Y     32       0.09      1.008
   118       CTL2      1   SDPC   C311     33      -0.18     12.011
   119       HAL2      1   SDPC   H11X     33       0.09      1.008
   120       HAL2      1   SDPC   H11Y     33       0.09      1.008
   121       CTL2      1   SDPC   C312     34      -0.18     12.011
   122       HAL2      1   SDPC   H12X     34       0.09      1.008
   123       HAL2      1   SDPC   H12Y     34       0.09      1.008
   124       CTL2      1   SDPC   C313     35      -0.18     12.011
   125       HAL2      1   SDPC   H13X     35       0.09      1.008
   126       HAL2      1   SDPC   H13Y     35       0.09      1.008
   127       CTL2      1   SDPC   C314     36      -0.18     12.011
   128       HAL2      1   SDPC   H14X     36       0.09      1.008
   129       HAL2      1   SDPC   H14Y     36       0.09      1.008
   130       CTL2      1   SDPC   C315     37      -0.18     12.011
   131       HAL2      1   SDPC   H15X     37       0.09      1.008
   132       HAL2      1   SDPC   H15Y     37       0.09      1.008
   133       CTL2      1   SDPC   C316     38      -0.18     12.011
   134       HAL2      1   SDPC   H16X     38       0.09      1.008
   135       HAL2      1   SDPC   H16Y     38       0.09      1.008
   136       CTL2      1   SDPC   C317     39      -0.18     12.011
   137       HAL2      1   SDPC   H17X     39       0.09      1.008
   138       HAL2      1   SDPC   H17Y     39       0.09      1.008
   139       CTL3      1   SDPC   C318     40      -0.27     12.011
   140       HAL3      1   SDPC   H18X     40       0.09      1.008
   141       HAL3      1   SDPC   H18Y     40       0.09      1.008
   142       HAL3      1   SDPC   H18Z     40       0.09      1.008   ; qtot 0

[ bonds ]
;  ai    aj funct            c0            c1            c2            c3
    1     2     1 
    1     5     1 
    1     9     1 
    1    13     1 
    2     3     1 
    2     4     1 
    2    17     1 
    5     6     1 
    5     7     1 
    5     8     1 
    9    10     1 
    9    11     1 
    9    12     1 
   13    14     1 
   13    15     1 
   13    16     1 
   17    18     1 
   17    19     1 
   17    23     1 
   20    21     1 
   20    22     1 
   20    23     1 
   20    24     1 
   24    25     1 
   25    26     1 
   25    27     1 
   25    28     1 
   28    29     1 
   28    30     1 
   28    36     1 
   30    31     1 
   31    32     1 
   31    33     1 
   33    34     1 
   33    35     1 
   33    45     1 
   36    37     1 
   36    38     1 
   36    39     1 
   39    40     1 
   40    41     1 
   40    42     1 
   42    43     1 
   42    44     1 
   42    94     1 
   45    46     1 
   45    47     1 
   45    48     1 
   48    49     1 
   48    50     1 
   50    51     1 
   50    52     1 
   52    53     1 
   52    54     1 
   52    55     1 
   55    56     1 
   55    57     1 
   57    58     1 
   57    59     1 
   59    60     1 
   59    61     1 
   59    62     1 
   62    63     1 
   62    64     1 
   64    65     1 
   64    66     1 
   66    67     1 
   66    68     1 
   66    69     1 
   69    70     1 
   69    71     1 
   71    72     1 
   71    73     1 
   73    74     1 
   73    75     1 
   73    76     1 
   76    77     1 
   76    78     1 
   78    79     1 
   78    80     1 
   80    81     1 
   80    82     1 
   80    83     1 
   83    84     1 
   83    85     1 
   85    86     1 
   85    87     1 
   87    88     1 
   87    89     1 
   87    90     1 
   90    91     1 
   90    92     1 
   90    93     1 
   94    95     1 
   94    96     1 
   94    97     1 
   97    98     1 
   97    99     1 
   97   100     1 
  100   101     1 
  100   102     1 
  100   103     1 
  103   104     1 
  103   105     1 
  103   106     1 
  106   107     1 
  106   108     1 
  106   109     1 
  109   110     1 
  109   111     1 
  109   112     1 
  112   113     1 
  112   114     1 
  112   115     1 
  115   116     1 
  115   117     1 
  115   118     1 
  118   119     1 
  118   120     1 
  118   121     1 
  121   122     1 
  121   123     1 
  121   124     1 
  124   125     1 
  124   126     1 
  124   127     1 
  127   128     1 
  127   129     1 
  127   130     1 
  130   131     1 
  130   132     1 
  130   133     1 
  133   134     1 
  133   135     1 
  133   136     1 
  136   137     1 
  136   138     1 
  136   139     1 
  139   140     1 
  139   141     1 
  139   142     1 

[ pairs ]
;  ai    aj funct            c0            c1            c2            c3
    1    18     1 
    1    19     1 
    1    23     1 
    2     6     1 
    2     7     1 
    2     8     1 
    2    10     1 
    2    11     1 
    2    12     1 
    2    14     1 
    2    15     1 
    2    16     1 
    2    20     1 
    3     5     1 
    3     9     1 
    3    13     1 
    3    18     1 
    3    19     1 
    3    23     1 
    4     5     1 
    4     9     1 
    4    13     1 
    4    18     1 
    4    19     1 
    4    23     1 
    5    10     1 
    5    11     1 
    5    12     1 
    5    14     1 
    5    15     1 
    5    16     1 
    5    17     1 
    6     9     1 
    6    13     1 
    7     9     1 
    7    13     1 
    8     9     1 
    8    13     1 
    9    14     1 
    9    15     1 
    9    16     1 
    9    17     1 
   10    13     1 
   11    13     1 
   12    13     1 
   13    17     1 
   17    21     1 
   17    22     1 
   17    24     1 
   18    20     1 
   19    20     1 
   20    26     1 
   20    27     1 
   20    28     1 
   21    25     1 
   22    25     1 
   23    25     1 
   24    29     1 
   24    30     1 
   24    36     1 
   25    31     1 
   25    37     1 
   25    38     1 
   25    39     1 
   26    29     1 
   26    30     1 
   26    36     1 
   27    29     1 
   27    30     1 
   27    36     1 
   28    32     1 
   28    33     1 
   28    40     1 
   29    31     1 
   29    37     1 
   29    38     1 
   29    39     1 
   30    34     1 
   30    35     1 
   30    37     1 
   30    38     1 
   30    39     1 
   30    45     1 
   31    36     1 
   31    46     1 
   31    47     1 
   31    48     1 
   32    34     1 
   32    35     1 
   32    45     1 
   33    49     1 
   33    50     1 
   34    46     1 
   34    47     1 
   34    48     1 
   35    46     1 
   35    47     1 
   35    48     1 
   36    41     1 
   36    42     1 
   37    40     1 
   38    40     1 
   39    43     1 
   39    44     1 
   39    94     1 
   40    95     1 
   40    96     1 
   40    97     1 
   41    43     1 
   41    44     1 
   41    94     1 
   42    98     1 
   42    99     1 
   42   100     1 
   43    95     1 
   43    96     1 
   43    97     1 
   44    95     1 
   44    96     1 
   44    97     1 
   45    51     1 
   45    52     1 
   46    49     1 
   46    50     1 
   47    49     1 
   47    50     1 
   48    53     1 
   48    54     1 
   48    55     1 
   49    51     1 
   49    52     1 
   50    56     1 
   50    57     1 
   51    53     1 
   51    54     1 
   51    55     1 
   52    58     1 
   52    59     1 
   53    56     1 
   53    57     1 
   54    56     1 
   54    57     1 
   55    60     1 
   55    61     1 
   55    62     1 
   56    58     1 
   56    59     1 
   57    63     1 
   57    64     1 
   58    60     1 
   58    61     1 
   58    62     1 
   59    65     1 
   59    66     1 
   60    63     1 
   60    64     1 
   61    63     1 
   61    64     1 
   62    67     1 
   62    68     1 
   62    69     1 
   63    65     1 
   63    66     1 
   64    70     1 
   64    71     1 
   65    67     1 
   65    68     1 
   65    69     1 
   66    72     1 
   66    73     1 
   67    70     1 
   67    71     1 
   68    70     1 
   68    71     1 
   69    74     1 
   69    75     1 
   69    76     1 
   70    72     1 
   70    73     1 
   71    77     1 
   71    78     1 
   72    74     1 
   72    75     1 
   72    76     1 
   73    79     1 
   73    80     1 
   74    77     1 
   74    78     1 
   75    77     1 
   75    78     1 
   76    81     1 
   76    82     1 
   76    83     1 
   77    79     1 
   77    80     1 
   78    84     1 
   78    85     1 
   79    81     1 
   79    82     1 
   79    83     1 
   80    86     1 
   80    87     1 
   81    84     1 
   81    85     1 
   82    84     1 
   82    85     1 
   83    88     1 
   83    89     1 
   83    90     1 
   84    86     1 
   84    87     1 
   85    91     1 
   85    92     1 
   85    93     1 
   86    88     1 
   86    89     1 
   86    90     1 
   88    91     1 
   88    92     1 
   88    93     1 
   89    91     1 
   89    92     1 
   89    93     1 
   94   101     1 
   94   102     1 
   94   103     1 
   95    98     1 
   95    99     1 
   95   100     1 
   96    98     1 
   96    99     1 
   96   100     1 
   97   104     1 
   97   105     1 
   97   106     1 
   98   101     1 
   98   102     1 
   98   103     1 
   99   101     1 
   99   102     1 
   99   103     1 
  100   107     1 
  100   108     1 
  100   109     1 
  101   104     1 
  101   105     1 
  101   106     1 
  102   104     1 
  102   105     1 
  102   106     1 
  103   110     1 
  103   111     1 
  103   112     1 
  104   107     1 
  104   108     1 
  104   109     1 
  105   107     1 
  105   108     1 
  105   109     1 
  106   113     1 
  106   114     1 
  106   115     1 
  107   110     1 
  107   111     1 
  107   112     1 
  108   110     1 
  108   111     1 
  108   112     1 
  109   116     1 
  109   117     1 
  109   118     1 
  110   113     1 
  110   114     1 
  110   115     1 
  111   113     1 
  111   114     1 
  111   115     1 
  112   119     1 
  112   120     1 
  112   121     1 
  113   116     1 
  113   117     1 
  113   118     1 
  114   116     1 
  114   117     1 
  114   118     1 
  115   122     1 
  115   123     1 
  115   124     1 
  116   119     1 
  116   120     1 
  116   121     1 
  117   119     1 
  117   120     1 
  117   121     1 
  118   125     1 
  118   126     1 
  118   127     1 
  119   122     1 
  119   123     1 
  119   124     1 
  120   122     1 
  120   123     1 
  120   124     1 
  121   128     1 
  121   129     1 
  121   130     1 
  122   125     1 
  122   126     1 
  122   127     1 
  123   125     1 
  123   126     1 
  123   127     1 
  124   131     1 
  124   132     1 
  124   133     1 
  125   128     1 
  125   129     1 
  125   130     1 
  126   128     1 
  126   129     1 
  126   130     1 
  127   134     1 
  127   135     1 
  127   136     1 
  128   131     1 
  128   132     1 
  128   133     1 
  129   131     1 
  129   132     1 
  129   133     1 
  130   137     1 
  130   138     1 
  130   139     1 
  131   134     1 
  131   135     1 
  131   136     1 
  132   134     1 
  132   135     1 
  132   136     1 
  133   140     1 
  133   141     1 
  133   142     1 
  134   137     1 
  134   138     1 
  134   139     1 
  135   137     1 
  135   138     1 
  135   139     1 
  137   140     1 
  137   141     1 
  137   142     1 
  138   140     1 
  138   141     1 
  138   142     1 

[ angles ]
;  ai    aj    ak funct            c0            c1            c2            c3
    2     1     5     5 
    2     1     9     5 
    2     1    13     5 
    5     1     9     5 
    5     1    13     5 
    9     1    13     5 
    1     2     3     5 
    1     2     4     5 
    1     2    17     5 
    3     2     4     5 
    3     2    17     5 
    4     2    17     5 
    1     5     6     5 
    1     5     7     5 
    1     5     8     5 
    6     5     7     5 
    6     5     8     5 
    7     5     8     5 
    1     9    10     5 
    1     9    11     5 
    1     9    12     5 
   10     9    11     5 
   10     9    12     5 
   11     9    12     5 
    1    13    14     5 
    1    13    15     5 
    1    13    16     5 
   14    13    15     5 
   14    13    16     5 
   15    13    16     5 
    2    17    18     5 
    2    17    19     5 
    2    17    23     5 
   18    17    19     5 
   18    17    23     5 
   19    17    23     5 
   21    20    22     5 
   21    20    23     5 
   21    20    24     5 
   22    20    23     5 
   22    20    24     5 
   23    20    24     5 
   17    23    20     5 
   20    24    25     5 
   24    25    26     5 
   24    25    27     5 
   24    25    28     5 
   26    25    27     5 
   26    25    28     5 
   27    25    28     5 
   25    28    29     5 
   25    28    30     5 
   25    28    36     5 
   29    28    30     5 
   29    28    36     5 
   30    28    36     5 
   28    30    31     5 
   30    31    32     5 
   30    31    33     5 
   32    31    33     5 
   31    33    34     5 
   31    33    35     5 
   31    33    45     5 
   34    33    35     5 
   34    33    45     5 
   35    33    45     5 
   28    36    37     5 
   28    36    38     5 
   28    36    39     5 
   37    36    38     5 
   37    36    39     5 
   38    36    39     5 
   36    39    40     5 
   39    40    41     5 
   39    40    42     5 
   41    40    42     5 
   40    42    43     5 
   40    42    44     5 
   40    42    94     5 
   43    42    44     5 
   43    42    94     5 
   44    42    94     5 
   33    45    46     5 
   33    45    47     5 
   33    45    48     5 
   46    45    47     5 
   46    45    48     5 
   47    45    48     5 
   45    48    49     5 
   45    48    50     5 
   49    48    50     5 
   48    50    51     5 
   48    50    52     5 
   51    50    52     5 
   50    52    53     5 
   50    52    54     5 
   50    52    55     5 
   53    52    54     5 
   53    52    55     5 
   54    52    55     5 
   52    55    56     5 
   52    55    57     5 
   56    55    57     5 
   55    57    58     5 
   55    57    59     5 
   58    57    59     5 
   57    59    60     5 
   57    59    61     5 
   57    59    62     5 
   60    59    61     5 
   60    59    62     5 
   61    59    62     5 
   59    62    63     5 
   59    62    64     5 
   63    62    64     5 
   62    64    65     5 
   62    64    66     5 
   65    64    66     5 
   64    66    67     5 
   64    66    68     5 
   64    66    69     5 
   67    66    68     5 
   67    66    69     5 
   68    66    69     5 
   66    69    70     5 
   66    69    71     5 
   70    69    71     5 
   69    71    72     5 
   69    71    73     5 
   72    71    73     5 
   71    73    74     5 
   71    73    75     5 
   71    73    76     5 
   74    73    75     5 
   74    73    76     5 
   75    73    76     5 
   73    76    77     5 
   73    76    78     5 
   77    76    78     5 
   76    78    79     5 
   76    78    80     5 
   79    78    80     5 
   78    80    81     5 
   78    80    82     5 
   78    80    83     5 
   81    80    82     5 
   81    80    83     5 
   82    80    83     5 
   80    83    84     5 
   80    83    85     5 
   84    83    85     5 
   83    85    86     5 
   83    85    87     5 
   86    85    87     5 
   85    87    88     5 
   85    87    89     5 
   85    87    90     5 
   88    87    89     5 
   88    87    90     5 
   89    87    90     5 
   87    90    91     5 
   87    90    92     5 
   87    90    93     5 
   91    90    92     5 
   91    90    93     5 
   92    90    93     5 
   42    94    95     5 
   42    94    96     5 
   42    94    97     5 
   95    94    96     5 
   95    94    97     5 
   96    94    97     5 
   94    97    98     5 
   94    97    99     5 
   94    97   100     5 
   98    97    99     5 
   98    97   100     5 
   99    97   100     5 
   97   100   101     5 
   97   100   102     5 
   97   100   103     5 
  101   100   102     5 
  101   100   103     5 
  102   100   103     5 
  100   103   104     5 
  100   103   105     5 
  100   103   106     5 
  104   103   105     5 
  104   103   106     5 
  105   103   106     5 
  103   106   107     5 
  103   106   108     5 
  103   106   109     5 
  107   106   108     5 
  107   106   109     5 
  108   106   109     5 
  106   109   110     5 
  106   109   111     5 
  106   109   112     5 
  110   109   111     5 
  110   109   112     5 
  111   109   112     5 
  109   112   113     5 
  109   112   114     5 
  109   112   115     5 
  113   112   114     5 
  113   112   115     5 
  114   112   115     5 
  112   115   116     5 
  112   115   117     5 
  112   115   118     5 
  116   115   117     5 
  116   115   118     5 
  117   115   118     5 
  115   118   119     5 
  115   118   120     5 
  115   118   121     5 
  119   118   120     5 
  119   118   121     5 
  120   118   121     5 
  118   121   122     5 
  118   121   123     5 
  118   121   124     5 
  122   121   123     5 
  122   121   124     5 
  123   121   124     5 
  121   124   125     5 
  121   124   126     5 
  121   124   127     5 
  125   124   126     5 
  125   124   127     5 
  126   124   127     5 
  124   127   128     5 
  124   127   129     5 
  124   127   130     5 
  128   127   129     5 
  128   127   130     5 
  129   127   130     5 
  127   130   131     5 
  127   130   132     5 
  127   130   133     5 
  131   130   132     5 
  131   130   133     5 
  132   130   133     5 
  130   133   134     5 
  130   133   135     5 
  130   133   136     5 
  134   133   135     5 
  134   133   136     5 
  135   133   136     5 
  133   136   137     5 
  133   136   138     5 
  133   136   139     5 
  137   136   138     5 
  137   136   139     5 
  138   136   139     5 
  136   139   140     5 
  136   139   141     5 
  136   139   142     5 
  140   139   141     5 
  140   139   142     5 
  141   139   142     5 

[ dihedrals ]
;  ai    aj    ak    al funct            c0            c1            c2            c3            c4            c5
    5     1     2     3     9 
    5     1     2     4     9 
    5     1     2    17     9 
    9     1     2     3     9 
    9     1     2     4     9 
    9     1     2    17     9 
   13     1     2     3     9 
   13     1     2     4     9 
   13     1     2    17     9 
    2     1     5     6     9 
    2     1     5     7     9 
    2     1     5     8     9 
    9     1     5     6     9 
    9     1     5     7     9 
    9     1     5     8     9 
   13     1     5     6     9 
   13     1     5     7     9 
   13     1     5     8     9 
    2     1     9    10     9 
    2     1     9    11     9 
    2     1     9    12     9 
    5     1     9    10     9 
    5     1     9    11     9 
    5     1     9    12     9 
   13     1     9    10     9 
   13     1     9    11     9 
   13     1     9    12     9 
    2     1    13    14     9 
    2     1    13    15     9 
    2     1    13    16     9 
    5     1    13    14     9 
    5     1    13    15     9 
    5     1    13    16     9 
    9     1    13    14     9 
    9     1    13    15     9 
    9     1    13    16     9 
    1     2    17    18     9 
    1     2    17    19     9 
    1     2    17    23     9 
    3     2    17    18     9 
    3     2    17    19     9 
    3     2    17    23     9 
    4     2    17    18     9 
    4     2    17    19     9 
    4     2    17    23     9 
    2    17    23    20     9 
   18    17    23    20     9 
   19    17    23    20     9 
   21    20    23    17     9 
   22    20    23    17     9 
   24    20    23    17     9 
   21    20    24    25     9 
   22    20    24    25     9 
   23    20    24    25     9 
   20    24    25    26     9 
   20    24    25    27     9 
   20    24    25    28     9 
   24    25    28    29     9 
   24    25    28    30     9 
   24    25    28    36     9 
   26    25    28    29     9 
   26    25    28    30     9 
   26    25    28    36     9 
   27    25    28    29     9 
   27    25    28    30     9 
   27    25    28    36     9 
   25    28    30    31     9 
   29    28    30    31     9 
   36    28    30    31     9 
   25    28    36    37     9 
   25    28    36    38     9 
   25    28    36    39     9 
   29    28    36    37     9 
   29    28    36    38     9 
   29    28    36    39     9 
   30    28    36    37     9 
   30    28    36    38     9 
   30    28    36    39     9 
   28    30    31    32     9 
   28    30    31    33     9 
   30    31    33    34     9 
   30    31    33    35     9 
   30    31    33    45     9 
   32    31    33    34     9 
   32    31    33    35     9 
   32    31    33    45     9 
   31    33    45    46     9 
   31    33    45    47     9 
   31    33    45    48     9 
   34    33    45    46     9 
   34    33    45    47     9 
   34    33    45    48     9 
   35    33    45    46     9 
   35    33    45    47     9 
   35    33    45    48     9 
   28    36    39    40     9 
   37    36    39    40     9 
   38    36    39    40     9 
   36    39    40    41     9 
   36    39    40    42     9 
   39    40    42    43     9 
   39    40    42    44     9 
   39    40    42    94     9 
   41    40    42    43     9 
   41    40    42    44     9 
   41    40    42    94     9 
   40    42    94    95     9 
   40    42    94    96     9 
   40    42    94    97     9 
   43    42    94    95     9 
   43    42    94    96     9 
   43    42    94    97     9 
   44    42    94    95     9 
   44    42    94    96     9 
   44    42    94    97     9 
   33    45    48    49     9 
   33    45    48    50     9 
   46    45    48    49     9 
   46    45    48    50     9 
   47    45    48    49     9 
   47    45    48    50     9 
   45    48    50    51     9 
   45    48    50    52     9 
   49    48    50    51     9 
   49    48    50    52     9 
   48    50    52    53     9 
   48    50    52    54     9 
   48    50    52    55     9 
   51    50    52    53     9 
   51    50    52    54     9 
   51    50    52    55     9 
   50    52    55    56     9 
   50    52    55    57     9 
   53    52    55    56     9 
   53    52    55    57     9 
   54    52    55    56     9 
   54    52    55    57     9 
   52    55    57    58     9 
   52    55    57    59     9 
   56    55    57    58     9 
   56    55    57    59     9 
   55    57    59    60     9 
   55    57    59    61     9 
   55    57    59    62     9 
   58    57    59    60     9 
   58    57    59    61     9 
   58    57    59    62     9 
   57    59    62    63     9 
   57    59    62    64     9 
   60    59    62    63     9 
   60    59    62    64     9 
   61    59    62    63     9 
   61    59    62    64     9 
   59    62    64    65     9 
   59    62    64    66     9 
   63    62    64    65     9 
   63    62    64    66     9 
   62    64    66    67     9 
   62    64    66    68     9 
   62    64    66    69     9 
   65    64    66    67     9 
   65    64    66    68     9 
   65    64    66    69     9 
   64    66    69    70     9 
   64    66    69    71     9 
   67    66    69    70     9 
   67    66    69    71     9 
   68    66    69    70     9 
   68    66    69    71     9 
   66    69    71    72     9 
   66    69    71    73     9 
   70    69    71    72     9 
   70    69    71    73     9 
   69    71    73    74     9 
   69    71    73    75     9 
   69    71    73    76     9 
   72    71    73    74     9 
   72    71    73    75     9 
   72    71    73    76     9 
   71    73    76    77     9 
   71    73    76    78     9 
   74    73    76    77     9 
   74    73    76    78     9 
   75    73    76    77     9 
   75    73    76    78     9 
   73    76    78    79     9 
   73    76    78    80     9 
   77    76    78    79     9 
   77    76    78    80     9 
   76    78    80    81     9 
   76    78    80    82     9 
   76    78    80    83     9 
   79    78    80    81     9 
   79    78    80    82     9 
   79    78    80    83     9 
   78    80    83    84     9 
   78    80    83    85     9 
   81    80    83    84     9 
   81    80    83    85     9 
   82    80    83    84     9 
   82    80    83    85     9 
   80    83    85    86     9 
   80    83    85    87     9 
   84    83    85    86     9 
   84    83    85    87     9 
   83    85    87    88     9 
   83    85    87    89     9 
   83    85    87    90     9 
   86    85    87    88     9 
   86    85    87    89     9 
   86    85    87    90     9 
   85    87    90    91     9 
   85    87    90    92     9 
   85    87    90    93     9 
   88    87    90    91     9 
   88    87    90    92     9 
   88    87    90    93     9 
   89    87    90    91     9 
   89    87    90    92     9 
   89    87    90    93     9 
   42    94    97    98     9 
   42    94    97    99     9 
   42    94    97   100     9 
   95    94    97    98     9 
   95    94    97    99     9 
   95    94    97   100     9 
   96    94    97    98     9 
   96    94    97    99     9 
   96    94    97   100     9 
   94    97   100   101     9 
   94    97   100   102     9 
   94    97   100   103     9 
   98    97   100   101     9 
   98    97   100   102     9 
   98    97   100   103     9 
   99    97   100   101     9 
   99    97   100   102     9 
   99    97   100   103     9 
   97   100   103   104     9 
   97   100   103   105     9 
   97   100   103   106     9 
  101   100   103   104     9 
  101   100   103   105     9 
  101   100   103   106     9 
  102   100   103   104     9 
  102   100   103   105     9 
  102   100   103   106     9 
  100   103   106   107     9 
  100   103   106   108     9 
  100   103   106   109     9 
  104   103   106   107     9 
  104   103   106   108     9 
  104   103   106   109     9 
  105   103   106   107     9 
  105   103   106   108     9 
  105   103   106   109     9 
  103   106   109   110     9 
  103   106   109   111     9 
  103   106   109   112     9 
  107   106   109   110     9 
  107   106   109   111     9 
  107   106   109   112     9 
  108   106   109   110     9 
  108   106   109   111     9 
  108   106   109   112     9 
  106   109   112   113     9 
  106   109   112   114     9 
  106   109   112   115     9 
  110   109   112   113     9 
  110   109   112   114     9 
  110   109   112   115     9 
  111   109   112   113     9 
  111   109   112   114     9 
  111   109   112   115     9 
  109   112   115   116     9 
  109   112   115   117     9 
  109   112   115   118     9 
  113   112   115   116     9 
  113   112   115   117     9 
  113   112   115   118     9 
  114   112   115   116     9 
  114   112   115   117     9 
  114   112   115   118     9 
  112   115   118   119     9 
  112   115   118   120     9 
  112   115   118   121     9 
  116   115   118   119     9 
  116   115   118   120     9 
  116   115   118   121     9 
  117   115   118   119     9 
  117   115   118   120     9 
  117   115   118   121     9 
  115   118   121   122     9 
  115   118   121   123     9 
  115   118   121   124     9 
  119   118   121   122     9 
  119   118   121   123     9 
  119   118   121   124     9 
  120   118   121   122     9 
  120   118   121   123     9 
  120   118   121   124     9 
  118   121   124   125     9 
  118   121   124   126     9 
  118   121   124   127     9 
  122   121   124   125     9 
  122   121   124   126     9 
  122   121   124   127     9 
  123   121   124   125     9 
  123   121   124   126     9 
  123   121   124   127     9 
  121   124   127   128     9 
  121   124   127   129     9 
  121   124   127   130     9 
  125   124   127   128     9 
  125   124   127   129     9 
  125   124   127   130     9 
  126   124   127   128     9 
  126   124   127   129     9 
  126   124   127   130     9 
  124   127   130   131     9 
  124   127   130   132     9 
  124   127   130   133     9 
  128   127   130   131     9 
  128   127   130   132     9 
  128   127   130   133     9 
  129   127   130   131     9 
  129   127   130   132     9 
  129   127   130   133     9 
  127   130   133   134     9 
  127   130   133   135     9 
  127   130   133   136     9 
  131   130   133   134     9 
  131   130   133   135     9 
  131   130   133   136     9 
  132   130   133   134     9 
  132   130   133   135     9 
  132   130   133   136     9 
  130   133   136   137     9 
  130   133   136   138     9 
  130   133   136   139     9 
  134   133   136   137     9 
  134   133   136   138     9 
  134   133   136   139     9 
  135   133   136   137     9 
  135   133   136   138     9 
  135   133   136   139     9 
  133   136   139   140     9 
  133   136   139   141     9 
  133   136   139   142     9 
  137   136   139   140     9 
  137   136   139   141     9 
  137   136   139   142     9 
  138   136   139   140     9 
  138   136   139   141     9 
  138   136   139   142     9 

[ dihedrals ]
;  ai    aj    ak    al funct            c0            c1            c2            c3
   31    30    33    32     2 
   40    39    42    41     2 

; Include Position restraint file
#ifdef POSRES
#include "SDPC_posre.itp"
#endif

