[ moleculetype ]
; Name            nrexcl
SAPA                3

[ atoms ]
;   nr       type  resnr residue  atom   cgnr     charge       mass  typeB    chargeB      massB
; residue   1 SAPA rtp SAPA q -1.0
     1         PL      1   SAPA      P      1        1.5     30.974
     2        O2L      1   SAPA    O13      1      -0.82    15.9994
     3        O2L      1   SAPA    O14      1      -0.82    15.9994
     4        OHL      1   SAPA    O12      1      -0.68    15.9994
     5        HOL      1   SAPA    H12      1       0.34      1.008
     6       OSLP      1   SAPA    O11      1      -0.62    15.9994
     7       CTL2      1   SAPA     C1      1      -0.08     12.011
     8       HAL2      1   SAPA     HA      1       0.09      1.008
     9       HAL2      1   SAPA     HB      1       0.09      1.008
    10       CTL1      1   SAPA     C2      2       0.17     12.011
    11       HAL1      1   SAPA     HS      2       0.09      1.008
    12        OSL      1   SAPA    O21      2      -0.49    15.9994
    13         CL      1   SAPA    C21      2        0.9     12.011
    14        OBL      1   SAPA    O22      2      -0.63    15.9994
    15       CTL2      1   SAPA    C22      2      -0.22     12.011
    16       HAL2      1   SAPA    H2R      2       0.09      1.008
    17       HAL2      1   SAPA    H2S      2       0.09      1.008
    18       CTL2      1   SAPA     C3      3       0.08     12.011
    19       HAL2      1   SAPA     HX      3       0.09      1.008
    20       HAL2      1   SAPA     HY      3       0.09      1.008
    21        OSL      1   SAPA    O31      3      -0.49    15.9994
    22         CL      1   SAPA    C31      3        0.9     12.011
    23        OBL      1   SAPA    O32      3      -0.63    15.9994
    24       CTL2      1   SAPA    C32      3      -0.22     12.011
    25       HAL2      1   SAPA    H2X      3       0.09      1.008
    26       HAL2      1   SAPA    H2Y      3       0.09      1.008
    27       CTL2      1   SAPA    C23      4      -0.18     12.011
    28       HAL2      1   SAPA    H3R      4       0.09      1.008
    29       HAL2      1   SAPA    H3S      4       0.09      1.008
    30       CTL2      1   SAPA    C24      5      -0.18     12.011
    31       HAL2      1   SAPA    H4R      5       0.09      1.008
    32       HAL2      1   SAPA    H4S      5       0.09      1.008
    33       CEL1      1   SAPA    C25      6      -0.15     12.011
    34       HEL1      1   SAPA    H5R      6       0.15      1.008
    35       CEL1      1   SAPA    C26      7      -0.15     12.011
    36       HEL1      1   SAPA    H6R      7       0.15      1.008
    37       CTL2      1   SAPA    C27      8      -0.18     12.011
    38       HAL2      1   SAPA    H7R      8       0.09      1.008
    39       HAL2      1   SAPA    H7S      8       0.09      1.008
    40       CEL1      1   SAPA    C28      9      -0.15     12.011
    41       HEL1      1   SAPA    H8R      9       0.15      1.008
    42       CEL1      1   SAPA    C29     10      -0.15     12.011
    43       HEL1      1   SAPA    H9R     10       0.15      1.008
    44       CTL2      1   SAPA   C210     11      -0.18     12.011
    45       HAL2      1   SAPA   H10R     11       0.09      1.008
    46       HAL2      1   SAPA   H10S     11       0.09      1.008
    47       CEL1      1   SAPA   C211     12      -0.15     12.011
    48       HEL1      1   SAPA   H11R     12       0.15      1.008
    49       CEL1      1   SAPA   C212     13      -0.15     12.011
    50       HEL1      1   SAPA   H12R     13       0.15      1.008
    51       CTL2      1   SAPA   C213     14      -0.18     12.011
    52       HAL2      1   SAPA   H13R     14       0.09      1.008
    53       HAL2      1   SAPA   H13S     14       0.09      1.008
    54       CEL1      1   SAPA   C214     15      -0.15     12.011
    55       HEL1      1   SAPA   H14R     15       0.15      1.008
    56       CEL1      1   SAPA   C215     16      -0.15     12.011
    57       HEL1      1   SAPA   H15R     16       0.15      1.008
    58       CTL2      1   SAPA   C216     17      -0.18     12.011
    59       HAL2      1   SAPA   H16R     17       0.09      1.008
    60       HAL2      1   SAPA   H16S     17       0.09      1.008
    61       CTL2      1   SAPA   C217     18      -0.18     12.011
    62       HAL2      1   SAPA   H17R     18       0.09      1.008
    63       HAL2      1   SAPA   H17S     18       0.09      1.008
    64       CTL2      1   SAPA   C218     19      -0.18     12.011
    65       HAL2      1   SAPA   H18R     19       0.09      1.008
    66       HAL2      1   SAPA   H18S     19       0.09      1.008
    67       CTL2      1   SAPA   C219     20      -0.18     12.011
    68       HAL2      1   SAPA   H19R     20       0.09      1.008
    69       HAL2      1   SAPA   H19S     20       0.09      1.008
    70       CTL3      1   SAPA   C220     21      -0.27     12.011
    71       HAL3      1   SAPA   H20R     21       0.09      1.008
    72       HAL3      1   SAPA   H20S     21       0.09      1.008
    73       HAL3      1   SAPA   H20T     21       0.09      1.008
    74       CTL2      1   SAPA    C33     22      -0.18     12.011
    75       HAL2      1   SAPA    H3X     22       0.09      1.008
    76       HAL2      1   SAPA    H3Y     22       0.09      1.008
    77       CTL2      1   SAPA    C34     23      -0.18     12.011
    78       HAL2      1   SAPA    H4X     23       0.09      1.008
    79       HAL2      1   SAPA    H4Y     23       0.09      1.008
    80       CTL2      1   SAPA    C35     24      -0.18     12.011
    81       HAL2      1   SAPA    H5X     24       0.09      1.008
    82       HAL2      1   SAPA    H5Y     24       0.09      1.008
    83       CTL2      1   SAPA    C36     25      -0.18     12.011
    84       HAL2      1   SAPA    H6X     25       0.09      1.008
    85       HAL2      1   SAPA    H6Y     25       0.09      1.008
    86       CTL2      1   SAPA    C37     26      -0.18     12.011
    87       HAL2      1   SAPA    H7X     26       0.09      1.008
    88       HAL2      1   SAPA    H7Y     26       0.09      1.008
    89       CTL2      1   SAPA    C38     27      -0.18     12.011
    90       HAL2      1   SAPA    H8X     27       0.09      1.008
    91       HAL2      1   SAPA    H8Y     27       0.09      1.008
    92       CTL2      1   SAPA    C39     28      -0.18     12.011
    93       HAL2      1   SAPA    H9X     28       0.09      1.008
    94       HAL2      1   SAPA    H9Y     28       0.09      1.008
    95       CTL2      1   SAPA   C310     29      -0.18     12.011
    96       HAL2      1   SAPA   H10X     29       0.09      1.008
    97       HAL2      1   SAPA   H10Y     29       0.09      1.008
    98       CTL2      1   SAPA   C311     30      -0.18     12.011
    99       HAL2      1   SAPA   H11X     30       0.09      1.008
   100       HAL2      1   SAPA   H11Y     30       0.09      1.008
   101       CTL2      1   SAPA   C312     31      -0.18     12.011
   102       HAL2      1   SAPA   H12X     31       0.09      1.008
   103       HAL2      1   SAPA   H12Y     31       0.09      1.008
   104       CTL2      1   SAPA   C313     32      -0.18     12.011
   105       HAL2      1   SAPA   H13X     32       0.09      1.008
   106       HAL2      1   SAPA   H13Y     32       0.09      1.008
   107       CTL2      1   SAPA   C314     33      -0.18     12.011
   108       HAL2      1   SAPA   H14X     33       0.09      1.008
   109       HAL2      1   SAPA   H14Y     33       0.09      1.008
   110       CTL2      1   SAPA   C315     34      -0.18     12.011
   111       HAL2      1   SAPA   H15X     34       0.09      1.008
   112       HAL2      1   SAPA   H15Y     34       0.09      1.008
   113       CTL2      1   SAPA   C316     35      -0.18     12.011
   114       HAL2      1   SAPA   H16X     35       0.09      1.008
   115       HAL2      1   SAPA   H16Y     35       0.09      1.008
   116       CTL2      1   SAPA   C317     36      -0.18     12.011
   117       HAL2      1   SAPA   H17X     36       0.09      1.008
   118       HAL2      1   SAPA   H17Y     36       0.09      1.008
   119       CTL3      1   SAPA   C318     37      -0.27     12.011
   120       HAL3      1   SAPA   H18X     37       0.09      1.008
   121       HAL3      1   SAPA   H18Y     37       0.09      1.008
   122       HAL3      1   SAPA   H18Z     37       0.09      1.008   ; qtot -1

[ bonds ]
;  ai    aj funct            c0            c1            c2            c3
    1     2     1 
    1     3     1 
    1     4     1 
    1     6     1 
    4     5     1 
    6     7     1 
    7     8     1 
    7     9     1 
    7    10     1 
   10    11     1 
   10    12     1 
   10    18     1 
   12    13     1 
   13    14     1 
   13    15     1 
   15    16     1 
   15    17     1 
   15    27     1 
   18    19     1 
   18    20     1 
   18    21     1 
   21    22     1 
   22    23     1 
   22    24     1 
   24    25     1 
   24    26     1 
   24    74     1 
   27    28     1 
   27    29     1 
   27    30     1 
   30    31     1 
   30    32     1 
   30    33     1 
   33    34     1 
   33    35     1 
   35    36     1 
   35    37     1 
   37    38     1 
   37    39     1 
   37    40     1 
   40    41     1 
   40    42     1 
   42    43     1 
   42    44     1 
   44    45     1 
   44    46     1 
   44    47     1 
   47    48     1 
   47    49     1 
   49    50     1 
   49    51     1 
   51    52     1 
   51    53     1 
   51    54     1 
   54    55     1 
   54    56     1 
   56    57     1 
   56    58     1 
   58    59     1 
   58    60     1 
   58    61     1 
   61    62     1 
   61    63     1 
   61    64     1 
   64    65     1 
   64    66     1 
   64    67     1 
   67    68     1 
   67    69     1 
   67    70     1 
   70    71     1 
   70    72     1 
   70    73     1 
   74    75     1 
   74    76     1 
   74    77     1 
   77    78     1 
   77    79     1 
   77    80     1 
   80    81     1 
   80    82     1 
   80    83     1 
   83    84     1 
   83    85     1 
   83    86     1 
   86    87     1 
   86    88     1 
   86    89     1 
   89    90     1 
   89    91     1 
   89    92     1 
   92    93     1 
   92    94     1 
   92    95     1 
   95    96     1 
   95    97     1 
   95    98     1 
   98    99     1 
   98   100     1 
   98   101     1 
  101   102     1 
  101   103     1 
  101   104     1 
  104   105     1 
  104   106     1 
  104   107     1 
  107   108     1 
  107   109     1 
  107   110     1 
  110   111     1 
  110   112     1 
  110   113     1 
  113   114     1 
  113   115     1 
  113   116     1 
  116   117     1 
  116   118     1 
  116   119     1 
  119   120     1 
  119   121     1 
  119   122     1 

[ pairs ]
;  ai    aj funct            c0            c1            c2            c3
    1     8     1 
    1     9     1 
    1    10     1 
    2     5     1 
    2     7     1 
    3     5     1 
    3     7     1 
    4     7     1 
    5     6     1 
    6    11     1 
    6    12     1 
    6    18     1 
    7    13     1 
    7    19     1 
    7    20     1 
    7    21     1 
    8    11     1 
    8    12     1 
    8    18     1 
    9    11     1 
    9    12     1 
    9    18     1 
   10    14     1 
   10    15     1 
   10    22     1 
   11    13     1 
   11    19     1 
   11    20     1 
   11    21     1 
   12    16     1 
   12    17     1 
   12    19     1 
   12    20     1 
   12    21     1 
   12    27     1 
   13    18     1 
   13    28     1 
   13    29     1 
   13    30     1 
   14    16     1 
   14    17     1 
   14    27     1 
   15    31     1 
   15    32     1 
   15    33     1 
   16    28     1 
   16    29     1 
   16    30     1 
   17    28     1 
   17    29     1 
   17    30     1 
   18    23     1 
   18    24     1 
   19    22     1 
   20    22     1 
   21    25     1 
   21    26     1 
   21    74     1 
   22    75     1 
   22    76     1 
   22    77     1 
   23    25     1 
   23    26     1 
   23    74     1 
   24    78     1 
   24    79     1 
   24    80     1 
   25    75     1 
   25    76     1 
   25    77     1 
   26    75     1 
   26    76     1 
   26    77     1 
   27    34     1 
   27    35     1 
   28    31     1 
   28    32     1 
   28    33     1 
   29    31     1 
   29    32     1 
   29    33     1 
   30    36     1 
   30    37     1 
   31    34     1 
   31    35     1 
   32    34     1 
   32    35     1 
   33    38     1 
   33    39     1 
   33    40     1 
   34    36     1 
   34    37     1 
   35    41     1 
   35    42     1 
   36    38     1 
   36    39     1 
   36    40     1 
   37    43     1 
   37    44     1 
   38    41     1 
   38    42     1 
   39    41     1 
   39    42     1 
   40    45     1 
   40    46     1 
   40    47     1 
   41    43     1 
   41    44     1 
   42    48     1 
   42    49     1 
   43    45     1 
   43    46     1 
   43    47     1 
   44    50     1 
   44    51     1 
   45    48     1 
   45    49     1 
   46    48     1 
   46    49     1 
   47    52     1 
   47    53     1 
   47    54     1 
   48    50     1 
   48    51     1 
   49    55     1 
   49    56     1 
   50    52     1 
   50    53     1 
   50    54     1 
   51    57     1 
   51    58     1 
   52    55     1 
   52    56     1 
   53    55     1 
   53    56     1 
   54    59     1 
   54    60     1 
   54    61     1 
   55    57     1 
   55    58     1 
   56    62     1 
   56    63     1 
   56    64     1 
   57    59     1 
   57    60     1 
   57    61     1 
   58    65     1 
   58    66     1 
   58    67     1 
   59    62     1 
   59    63     1 
   59    64     1 
   60    62     1 
   60    63     1 
   60    64     1 
   61    68     1 
   61    69     1 
   61    70     1 
   62    65     1 
   62    66     1 
   62    67     1 
   63    65     1 
   63    66     1 
   63    67     1 
   64    71     1 
   64    72     1 
   64    73     1 
   65    68     1 
   65    69     1 
   65    70     1 
   66    68     1 
   66    69     1 
   66    70     1 
   68    71     1 
   68    72     1 
   68    73     1 
   69    71     1 
   69    72     1 
   69    73     1 
   74    81     1 
   74    82     1 
   74    83     1 
   75    78     1 
   75    79     1 
   75    80     1 
   76    78     1 
   76    79     1 
   76    80     1 
   77    84     1 
   77    85     1 
   77    86     1 
   78    81     1 
   78    82     1 
   78    83     1 
   79    81     1 
   79    82     1 
   79    83     1 
   80    87     1 
   80    88     1 
   80    89     1 
   81    84     1 
   81    85     1 
   81    86     1 
   82    84     1 
   82    85     1 
   82    86     1 
   83    90     1 
   83    91     1 
   83    92     1 
   84    87     1 
   84    88     1 
   84    89     1 
   85    87     1 
   85    88     1 
   85    89     1 
   86    93     1 
   86    94     1 
   86    95     1 
   87    90     1 
   87    91     1 
   87    92     1 
   88    90     1 
   88    91     1 
   88    92     1 
   89    96     1 
   89    97     1 
   89    98     1 
   90    93     1 
   90    94     1 
   90    95     1 
   91    93     1 
   91    94     1 
   91    95     1 
   92    99     1 
   92   100     1 
   92   101     1 
   93    96     1 
   93    97     1 
   93    98     1 
   94    96     1 
   94    97     1 
   94    98     1 
   95   102     1 
   95   103     1 
   95   104     1 
   96    99     1 
   96   100     1 
   96   101     1 
   97    99     1 
   97   100     1 
   97   101     1 
   98   105     1 
   98   106     1 
   98   107     1 
   99   102     1 
   99   103     1 
   99   104     1 
  100   102     1 
  100   103     1 
  100   104     1 
  101   108     1 
  101   109     1 
  101   110     1 
  102   105     1 
  102   106     1 
  102   107     1 
  103   105     1 
  103   106     1 
  103   107     1 
  104   111     1 
  104   112     1 
  104   113     1 
  105   108     1 
  105   109     1 
  105   110     1 
  106   108     1 
  106   109     1 
  106   110     1 
  107   114     1 
  107   115     1 
  107   116     1 
  108   111     1 
  108   112     1 
  108   113     1 
  109   111     1 
  109   112     1 
  109   113     1 
  110   117     1 
  110   118     1 
  110   119     1 
  111   114     1 
  111   115     1 
  111   116     1 
  112   114     1 
  112   115     1 
  112   116     1 
  113   120     1 
  113   121     1 
  113   122     1 
  114   117     1 
  114   118     1 
  114   119     1 
  115   117     1 
  115   118     1 
  115   119     1 
  117   120     1 
  117   121     1 
  117   122     1 
  118   120     1 
  118   121     1 
  118   122     1 

[ angles ]
;  ai    aj    ak funct            c0            c1            c2            c3
    2     1     3     5 
    2     1     4     5 
    2     1     6     5 
    3     1     4     5 
    3     1     6     5 
    4     1     6     5 
    1     4     5     5 
    1     6     7     5 
    6     7     8     5 
    6     7     9     5 
    6     7    10     5 
    8     7     9     5 
    8     7    10     5 
    9     7    10     5 
    7    10    11     5 
    7    10    12     5 
    7    10    18     5 
   11    10    12     5 
   11    10    18     5 
   12    10    18     5 
   10    12    13     5 
   12    13    14     5 
   12    13    15     5 
   14    13    15     5 
   13    15    16     5 
   13    15    17     5 
   13    15    27     5 
   16    15    17     5 
   16    15    27     5 
   17    15    27     5 
   10    18    19     5 
   10    18    20     5 
   10    18    21     5 
   19    18    20     5 
   19    18    21     5 
   20    18    21     5 
   18    21    22     5 
   21    22    23     5 
   21    22    24     5 
   23    22    24     5 
   22    24    25     5 
   22    24    26     5 
   22    24    74     5 
   25    24    26     5 
   25    24    74     5 
   26    24    74     5 
   15    27    28     5 
   15    27    29     5 
   15    27    30     5 
   28    27    29     5 
   28    27    30     5 
   29    27    30     5 
   27    30    31     5 
   27    30    32     5 
   27    30    33     5 
   31    30    32     5 
   31    30    33     5 
   32    30    33     5 
   30    33    34     5 
   30    33    35     5 
   34    33    35     5 
   33    35    36     5 
   33    35    37     5 
   36    35    37     5 
   35    37    38     5 
   35    37    39     5 
   35    37    40     5 
   38    37    39     5 
   38    37    40     5 
   39    37    40     5 
   37    40    41     5 
   37    40    42     5 
   41    40    42     5 
   40    42    43     5 
   40    42    44     5 
   43    42    44     5 
   42    44    45     5 
   42    44    46     5 
   42    44    47     5 
   45    44    46     5 
   45    44    47     5 
   46    44    47     5 
   44    47    48     5 
   44    47    49     5 
   48    47    49     5 
   47    49    50     5 
   47    49    51     5 
   50    49    51     5 
   49    51    52     5 
   49    51    53     5 
   49    51    54     5 
   52    51    53     5 
   52    51    54     5 
   53    51    54     5 
   51    54    55     5 
   51    54    56     5 
   55    54    56     5 
   54    56    57     5 
   54    56    58     5 
   57    56    58     5 
   56    58    59     5 
   56    58    60     5 
   56    58    61     5 
   59    58    60     5 
   59    58    61     5 
   60    58    61     5 
   58    61    62     5 
   58    61    63     5 
   58    61    64     5 
   62    61    63     5 
   62    61    64     5 
   63    61    64     5 
   61    64    65     5 
   61    64    66     5 
   61    64    67     5 
   65    64    66     5 
   65    64    67     5 
   66    64    67     5 
   64    67    68     5 
   64    67    69     5 
   64    67    70     5 
   68    67    69     5 
   68    67    70     5 
   69    67    70     5 
   67    70    71     5 
   67    70    72     5 
   67    70    73     5 
   71    70    72     5 
   71    70    73     5 
   72    70    73     5 
   24    74    75     5 
   24    74    76     5 
   24    74    77     5 
   75    74    76     5 
   75    74    77     5 
   76    74    77     5 
   74    77    78     5 
   74    77    79     5 
   74    77    80     5 
   78    77    79     5 
   78    77    80     5 
   79    77    80     5 
   77    80    81     5 
   77    80    82     5 
   77    80    83     5 
   81    80    82     5 
   81    80    83     5 
   82    80    83     5 
   80    83    84     5 
   80    83    85     5 
   80    83    86     5 
   84    83    85     5 
   84    83    86     5 
   85    83    86     5 
   83    86    87     5 
   83    86    88     5 
   83    86    89     5 
   87    86    88     5 
   87    86    89     5 
   88    86    89     5 
   86    89    90     5 
   86    89    91     5 
   86    89    92     5 
   90    89    91     5 
   90    89    92     5 
   91    89    92     5 
   89    92    93     5 
   89    92    94     5 
   89    92    95     5 
   93    92    94     5 
   93    92    95     5 
   94    92    95     5 
   92    95    96     5 
   92    95    97     5 
   92    95    98     5 
   96    95    97     5 
   96    95    98     5 
   97    95    98     5 
   95    98    99     5 
   95    98   100     5 
   95    98   101     5 
   99    98   100     5 
   99    98   101     5 
  100    98   101     5 
   98   101   102     5 
   98   101   103     5 
   98   101   104     5 
  102   101   103     5 
  102   101   104     5 
  103   101   104     5 
  101   104   105     5 
  101   104   106     5 
  101   104   107     5 
  105   104   106     5 
  105   104   107     5 
  106   104   107     5 
  104   107   108     5 
  104   107   109     5 
  104   107   110     5 
  108   107   109     5 
  108   107   110     5 
  109   107   110     5 
  107   110   111     5 
  107   110   112     5 
  107   110   113     5 
  111   110   112     5 
  111   110   113     5 
  112   110   113     5 
  110   113   114     5 
  110   113   115     5 
  110   113   116     5 
  114   113   115     5 
  114   113   116     5 
  115   113   116     5 
  113   116   117     5 
  113   116   118     5 
  113   116   119     5 
  117   116   118     5 
  117   116   119     5 
  118   116   119     5 
  116   119   120     5 
  116   119   121     5 
  116   119   122     5 
  120   119   121     5 
  120   119   122     5 
  121   119   122     5 

[ dihedrals ]
;  ai    aj    ak    al funct            c0            c1            c2            c3            c4            c5
    2     1     4     5     9 
    3     1     4     5     9 
    6     1     4     5     9 
    2     1     6     7     9 
    3     1     6     7     9 
    4     1     6     7     9 
    1     6     7     8     9 
    1     6     7     9     9 
    1     6     7    10     9 
    6     7    10    11     9 
    6     7    10    12     9 
    6     7    10    18     9 
    8     7    10    11     9 
    8     7    10    12     9 
    8     7    10    18     9 
    9     7    10    11     9 
    9     7    10    12     9 
    9     7    10    18     9 
    7    10    12    13     9 
   11    10    12    13     9 
   18    10    12    13     9 
    7    10    18    19     9 
    7    10    18    20     9 
    7    10    18    21     9 
   11    10    18    19     9 
   11    10    18    20     9 
   11    10    18    21     9 
   12    10    18    19     9 
   12    10    18    20     9 
   12    10    18    21     9 
   10    12    13    14     9 
   10    12    13    15     9 
   12    13    15    16     9 
   12    13    15    17     9 
   12    13    15    27     9 
   14    13    15    16     9 
   14    13    15    17     9 
   14    13    15    27     9 
   13    15    27    28     9 
   13    15    27    29     9 
   13    15    27    30     9 
   16    15    27    28     9 
   16    15    27    29     9 
   16    15    27    30     9 
   17    15    27    28     9 
   17    15    27    29     9 
   17    15    27    30     9 
   10    18    21    22     9 
   19    18    21    22     9 
   20    18    21    22     9 
   18    21    22    23     9 
   18    21    22    24     9 
   21    22    24    25     9 
   21    22    24    26     9 
   21    22    24    74     9 
   23    22    24    25     9 
   23    22    24    26     9 
   23    22    24    74     9 
   22    24    74    75     9 
   22    24    74    76     9 
   22    24    74    77     9 
   25    24    74    75     9 
   25    24    74    76     9 
   25    24    74    77     9 
   26    24    74    75     9 
   26    24    74    76     9 
   26    24    74    77     9 
   15    27    30    31     9 
   15    27    30    32     9 
   15    27    30    33     9 
   28    27    30    31     9 
   28    27    30    32     9 
   28    27    30    33     9 
   29    27    30    31     9 
   29    27    30    32     9 
   29    27    30    33     9 
   27    30    33    34     9 
   27    30    33    35     9 
   31    30    33    34     9 
   31    30    33    35     9 
   32    30    33    34     9 
   32    30    33    35     9 
   30    33    35    36     9 
   30    33    35    37     9 
   34    33    35    36     9 
   34    33    35    37     9 
   33    35    37    38     9 
   33    35    37    39     9 
   33    35    37    40     9 
   36    35    37    38     9 
   36    35    37    39     9 
   36    35    37    40     9 
   35    37    40    41     9 
   35    37    40    42     9 
   38    37    40    41     9 
   38    37    40    42     9 
   39    37    40    41     9 
   39    37    40    42     9 
   37    40    42    43     9 
   37    40    42    44     9 
   41    40    42    43     9 
   41    40    42    44     9 
   40    42    44    45     9 
   40    42    44    46     9 
   40    42    44    47     9 
   43    42    44    45     9 
   43    42    44    46     9 
   43    42    44    47     9 
   42    44    47    48     9 
   42    44    47    49     9 
   45    44    47    48     9 
   45    44    47    49     9 
   46    44    47    48     9 
   46    44    47    49     9 
   44    47    49    50     9 
   44    47    49    51     9 
   48    47    49    50     9 
   48    47    49    51     9 
   47    49    51    52     9 
   47    49    51    53     9 
   47    49    51    54     9 
   50    49    51    52     9 
   50    49    51    53     9 
   50    49    51    54     9 
   49    51    54    55     9 
   49    51    54    56     9 
   52    51    54    55     9 
   52    51    54    56     9 
   53    51    54    55     9 
   53    51    54    56     9 
   51    54    56    57     9 
   51    54    56    58     9 
   55    54    56    57     9 
   55    54    56    58     9 
   54    56    58    59     9 
   54    56    58    60     9 
   54    56    58    61     9 
   57    56    58    59     9 
   57    56    58    60     9 
   57    56    58    61     9 
   56    58    61    62     9 
   56    58    61    63     9 
   56    58    61    64     9 
   59    58    61    62     9 
   59    58    61    63     9 
   59    58    61    64     9 
   60    58    61    62     9 
   60    58    61    63     9 
   60    58    61    64     9 
   58    61    64    65     9 
   58    61    64    66     9 
   58    61    64    67     9 
   62    61    64    65     9 
   62    61    64    66     9 
   62    61    64    67     9 
   63    61    64    65     9 
   63    61    64    66     9 
   63    61    64    67     9 
   61    64    67    68     9 
   61    64    67    69     9 
   61    64    67    70     9 
   65    64    67    68     9 
   65    64    67    69     9 
   65    64    67    70     9 
   66    64    67    68     9 
   66    64    67    69     9 
   66    64    67    70     9 
   64    67    70    71     9 
   64    67    70    72     9 
   64    67    70    73     9 
   68    67    70    71     9 
   68    67    70    72     9 
   68    67    70    73     9 
   69    67    70    71     9 
   69    67    70    72     9 
   69    67    70    73     9 
   24    74    77    78     9 
   24    74    77    79     9 
   24    74    77    80     9 
   75    74    77    78     9 
   75    74    77    79     9 
   75    74    77    80     9 
   76    74    77    78     9 
   76    74    77    79     9 
   76    74    77    80     9 
   74    77    80    81     9 
   74    77    80    82     9 
   74    77    80    83     9 
   78    77    80    81     9 
   78    77    80    82     9 
   78    77    80    83     9 
   79    77    80    81     9 
   79    77    80    82     9 
   79    77    80    83     9 
   77    80    83    84     9 
   77    80    83    85     9 
   77    80    83    86     9 
   81    80    83    84     9 
   81    80    83    85     9 
   81    80    83    86     9 
   82    80    83    84     9 
   82    80    83    85     9 
   82    80    83    86     9 
   80    83    86    87     9 
   80    83    86    88     9 
   80    83    86    89     9 
   84    83    86    87     9 
   84    83    86    88     9 
   84    83    86    89     9 
   85    83    86    87     9 
   85    83    86    88     9 
   85    83    86    89     9 
   83    86    89    90     9 
   83    86    89    91     9 
   83    86    89    92     9 
   87    86    89    90     9 
   87    86    89    91     9 
   87    86    89    92     9 
   88    86    89    90     9 
   88    86    89    91     9 
   88    86    89    92     9 
   86    89    92    93     9 
   86    89    92    94     9 
   86    89    92    95     9 
   90    89    92    93     9 
   90    89    92    94     9 
   90    89    92    95     9 
   91    89    92    93     9 
   91    89    92    94     9 
   91    89    92    95     9 
   89    92    95    96     9 
   89    92    95    97     9 
   89    92    95    98     9 
   93    92    95    96     9 
   93    92    95    97     9 
   93    92    95    98     9 
   94    92    95    96     9 
   94    92    95    97     9 
   94    92    95    98     9 
   92    95    98    99     9 
   92    95    98   100     9 
   92    95    98   101     9 
   96    95    98    99     9 
   96    95    98   100     9 
   96    95    98   101     9 
   97    95    98    99     9 
   97    95    98   100     9 
   97    95    98   101     9 
   95    98   101   102     9 
   95    98   101   103     9 
   95    98   101   104     9 
   99    98   101   102     9 
   99    98   101   103     9 
   99    98   101   104     9 
  100    98   101   102     9 
  100    98   101   103     9 
  100    98   101   104     9 
   98   101   104   105     9 
   98   101   104   106     9 
   98   101   104   107     9 
  102   101   104   105     9 
  102   101   104   106     9 
  102   101   104   107     9 
  103   101   104   105     9 
  103   101   104   106     9 
  103   101   104   107     9 
  101   104   107   108     9 
  101   104   107   109     9 
  101   104   107   110     9 
  105   104   107   108     9 
  105   104   107   109     9 
  105   104   107   110     9 
  106   104   107   108     9 
  106   104   107   109     9 
  106   104   107   110     9 
  104   107   110   111     9 
  104   107   110   112     9 
  104   107   110   113     9 
  108   107   110   111     9 
  108   107   110   112     9 
  108   107   110   113     9 
  109   107   110   111     9 
  109   107   110   112     9 
  109   107   110   113     9 
  107   110   113   114     9 
  107   110   113   115     9 
  107   110   113   116     9 
  111   110   113   114     9 
  111   110   113   115     9 
  111   110   113   116     9 
  112   110   113   114     9 
  112   110   113   115     9 
  112   110   113   116     9 
  110   113   116   117     9 
  110   113   116   118     9 
  110   113   116   119     9 
  114   113   116   117     9 
  114   113   116   118     9 
  114   113   116   119     9 
  115   113   116   117     9 
  115   113   116   118     9 
  115   113   116   119     9 
  113   116   119   120     9 
  113   116   119   121     9 
  113   116   119   122     9 
  117   116   119   120     9 
  117   116   119   121     9 
  117   116   119   122     9 
  118   116   119   120     9 
  118   116   119   121     9 
  118   116   119   122     9 

[ dihedrals ]
;  ai    aj    ak    al funct            c0            c1            c2            c3
   13    12    15    14     2 
   22    21    24    23     2 

; Include Position restraint file
#ifdef POSRES
#include "SAPA_posre.itp"
#endif

