; Include force field parameters
#include "../FINAL/charmm36-cg2at.ff/forcefield.itp"
#include "/storage/lfsmgr_grp/mzsrjr/cg2at-lite/src/cg2at_lite/fragments/martini_3-1_new_lipidome_charmm36/solvent/W/TIP3P.itp"

[ system ]
; Name
Something clever....

[ molecules ]
; Compound        #mols
TIP3P    28916