[ moleculetype ]
; Name            nrexcl
TMCL                3

[ atoms ]
;   nr       type  resnr residue  atom   cgnr     charge       mass  typeB    chargeB      massB
; residue   1 TMCL rtp TMCL q -2.0
     1       CTL2      1   TMCL     C3      1      -0.08     12.011
     2       HAL2      1   TMCL   HG31      1       0.09      1.008
     3       HAL2      1   TMCL   HG32      1       0.09      1.008
     4         PL      1   TMCL     P3      1        1.5     30.974
     5        O2L      1   TMCL   OP33      1      -0.78    15.9994
     6        O2L      1   TMCL   OP34      1      -0.78    15.9994
     7       OSLP      1   TMCL   OP31      1      -0.57    15.9994
     8       OSLP      1   TMCL   OP32      1      -0.57    15.9994
     9       CTL2      1   TMCL    C31      1      -0.08     12.011
    10       HAL2      1   TMCL   H31J      1       0.09      1.008
    11       HAL2      1   TMCL   H31K      1       0.09      1.008
    12       CTL1      1   TMCL     C2      2       0.14     12.011
    13       HAL1      1   TMCL   HG22      2       0.09      1.008
    14        OHL      1   TMCL   OG12      2      -0.65    15.9994
    15        HOL      1   TMCL   HO12      2       0.42      1.008
    16       CTL2      1   TMCL     C1      3      -0.08     12.011
    17       HAL2      1   TMCL   HG11      3       0.09      1.008
    18       HAL2      1   TMCL   HG12      3       0.09      1.008
    19         PL      1   TMCL     P1      3        1.5     30.974
    20        O2L      1   TMCL   OP13      3      -0.78    15.9994
    21        O2L      1   TMCL   OP14      3      -0.78    15.9994
    22       OSLP      1   TMCL   OP11      3      -0.57    15.9994
    23       OSLP      1   TMCL   OP12      3      -0.57    15.9994
    24       CTL2      1   TMCL    C11      3      -0.08     12.011
    25       HAL2      1   TMCL   H11J      3       0.09      1.008
    26       HAL2      1   TMCL   H11K      3       0.09      1.008
    27       CTL1      1   TMCL    C12      4       0.17     12.011
    28       HAL1      1   TMCL   H12J      4       0.09      1.008
    29        OSL      1   TMCL    O12      4      -0.49    15.9994
    30         CL      1   TMCL    CA1      4        0.9     12.011
    31        OBL      1   TMCL    OA1      4      -0.63    15.9994
    32       CTL2      1   TMCL    CA2      4      -0.22     12.011
    33       HAL2      1   TMCL    H2A      4       0.09      1.008
    34       HAL2      1   TMCL    H2B      4       0.09      1.008
    35       CTL2      1   TMCL    C13      5       0.08     12.011
    36       HAL2      1   TMCL   H13J      5       0.09      1.008
    37       HAL2      1   TMCL   H13K      5       0.09      1.008
    38        OSL      1   TMCL    O13      5      -0.49    15.9994
    39         CL      1   TMCL    CB1      5        0.9     12.011
    40        OBL      1   TMCL    OB1      5      -0.63    15.9994
    41       CTL2      1   TMCL    CB2      5      -0.22     12.011
    42       HAL2      1   TMCL    H2D      5       0.09      1.008
    43       HAL2      1   TMCL    H2E      5       0.09      1.008
    44       CTL1      1   TMCL    C32      6       0.17     12.011
    45       HAL1      1   TMCL   H32J      6       0.09      1.008
    46        OSL      1   TMCL    O32      6      -0.49    15.9994
    47         CL      1   TMCL    CC1      6        0.9     12.011
    48        OBL      1   TMCL    OC1      6      -0.63    15.9994
    49       CTL2      1   TMCL    CC2      6      -0.22     12.011
    50       HAL2      1   TMCL    H2R      6       0.09      1.008
    51       HAL2      1   TMCL    H2S      6       0.09      1.008
    52       CTL2      1   TMCL    C33      7       0.08     12.011
    53       HAL2      1   TMCL   H33J      7       0.09      1.008
    54       HAL2      1   TMCL   H33K      7       0.09      1.008
    55        OSL      1   TMCL    O33      7      -0.49    15.9994
    56         CL      1   TMCL    CD1      7        0.9     12.011
    57        OBL      1   TMCL    OD1      7      -0.63    15.9994
    58       CTL2      1   TMCL    CD2      7      -0.22     12.011
    59       HAL2      1   TMCL    H2X      7       0.09      1.008
    60       HAL2      1   TMCL    H2Y      7       0.09      1.008
    61       CTL2      1   TMCL    CA3      8      -0.18     12.011
    62       HAL2      1   TMCL    H3A      8       0.09      1.008
    63       HAL2      1   TMCL    H3B      8       0.09      1.008
    64       CTL2      1   TMCL    CA4      9      -0.18     12.011
    65       HAL2      1   TMCL    H4A      9       0.09      1.008
    66       HAL2      1   TMCL    H4B      9       0.09      1.008
    67       CTL2      1   TMCL    CA5     10      -0.18     12.011
    68       HAL2      1   TMCL    H5A     10       0.09      1.008
    69       HAL2      1   TMCL    H5B     10       0.09      1.008
    70       CTL2      1   TMCL    CA6     11      -0.18     12.011
    71       HAL2      1   TMCL    H6A     11       0.09      1.008
    72       HAL2      1   TMCL    H6B     11       0.09      1.008
    73       CTL2      1   TMCL    CA7     12      -0.18     12.011
    74       HAL2      1   TMCL    H7A     12       0.09      1.008
    75       HAL2      1   TMCL    H7B     12       0.09      1.008
    76       CTL2      1   TMCL    CA8     13      -0.18     12.011
    77       HAL2      1   TMCL    H8A     13       0.09      1.008
    78       HAL2      1   TMCL    H8B     13       0.09      1.008
    79       CTL2      1   TMCL    CA9     14      -0.18     12.011
    80       HAL2      1   TMCL    H9A     14       0.09      1.008
    81       HAL2      1   TMCL    H9B     14       0.09      1.008
    82       CTL2      1   TMCL   CA10     15      -0.18     12.011
    83       HAL2      1   TMCL   H10A     15       0.09      1.008
    84       HAL2      1   TMCL   H10B     15       0.09      1.008
    85       CTL2      1   TMCL   CA11     16      -0.18     12.011
    86       HAL2      1   TMCL   H11A     16       0.09      1.008
    87       HAL2      1   TMCL   H11B     16       0.09      1.008
    88       CTL2      1   TMCL   CA12     17      -0.18     12.011
    89       HAL2      1   TMCL   H12A     17       0.09      1.008
    90       HAL2      1   TMCL   H12B     17       0.09      1.008
    91       CTL2      1   TMCL   CA13     18      -0.18     12.011
    92       HAL2      1   TMCL   H13A     18       0.09      1.008
    93       HAL2      1   TMCL   H13B     18       0.09      1.008
    94       CTL3      1   TMCL   CA14     19      -0.27     12.011
    95       HAL3      1   TMCL   H14A     19       0.09      1.008
    96       HAL3      1   TMCL   H14B     19       0.09      1.008
    97       HAL3      1   TMCL   H14C     19       0.09      1.008
    98       CTL2      1   TMCL    CB3     20      -0.18     12.011
    99       HAL2      1   TMCL    H3D     20       0.09      1.008
   100       HAL2      1   TMCL    H3E     20       0.09      1.008
   101       CTL2      1   TMCL    CB4     21      -0.18     12.011
   102       HAL2      1   TMCL    H4D     21       0.09      1.008
   103       HAL2      1   TMCL    H4E     21       0.09      1.008
   104       CTL2      1   TMCL    CB5     22      -0.18     12.011
   105       HAL2      1   TMCL    H5D     22       0.09      1.008
   106       HAL2      1   TMCL    H5E     22       0.09      1.008
   107       CTL2      1   TMCL    CB6     23      -0.18     12.011
   108       HAL2      1   TMCL    H6D     23       0.09      1.008
   109       HAL2      1   TMCL    H6E     23       0.09      1.008
   110       CTL2      1   TMCL    CB7     24      -0.18     12.011
   111       HAL2      1   TMCL    H7D     24       0.09      1.008
   112       HAL2      1   TMCL    H7E     24       0.09      1.008
   113       CTL2      1   TMCL    CB8     25      -0.18     12.011
   114       HAL2      1   TMCL    H8D     25       0.09      1.008
   115       HAL2      1   TMCL    H8E     25       0.09      1.008
   116       CTL2      1   TMCL    CB9     26      -0.18     12.011
   117       HAL2      1   TMCL    H9D     26       0.09      1.008
   118       HAL2      1   TMCL    H9E     26       0.09      1.008
   119       CTL2      1   TMCL   CB10     27      -0.18     12.011
   120       HAL2      1   TMCL   H10D     27       0.09      1.008
   121       HAL2      1   TMCL   H10E     27       0.09      1.008
   122       CTL2      1   TMCL   CB11     28      -0.18     12.011
   123       HAL2      1   TMCL   H11D     28       0.09      1.008
   124       HAL2      1   TMCL   H11E     28       0.09      1.008
   125       CTL2      1   TMCL   CB12     29      -0.18     12.011
   126       HAL2      1   TMCL   H12D     29       0.09      1.008
   127       HAL2      1   TMCL   H12E     29       0.09      1.008
   128       CTL2      1   TMCL   CB13     30      -0.18     12.011
   129       HAL2      1   TMCL   H13D     30       0.09      1.008
   130       HAL2      1   TMCL   H13E     30       0.09      1.008
   131       CTL3      1   TMCL   CB14     31      -0.27     12.011
   132       HAL3      1   TMCL   H14D     31       0.09      1.008
   133       HAL3      1   TMCL   H14E     31       0.09      1.008
   134       HAL3      1   TMCL   H14F     31       0.09      1.008
   135       CTL2      1   TMCL    CC3     32      -0.18     12.011
   136       HAL2      1   TMCL    H3R     32       0.09      1.008
   137       HAL2      1   TMCL    H3S     32       0.09      1.008
   138       CTL2      1   TMCL    CC4     33      -0.18     12.011
   139       HAL2      1   TMCL    H4R     33       0.09      1.008
   140       HAL2      1   TMCL    H4S     33       0.09      1.008
   141       CTL2      1   TMCL    CC5     34      -0.18     12.011
   142       HAL2      1   TMCL    H5R     34       0.09      1.008
   143       HAL2      1   TMCL    H5S     34       0.09      1.008
   144       CTL2      1   TMCL    CC6     35      -0.18     12.011
   145       HAL2      1   TMCL    H6R     35       0.09      1.008
   146       HAL2      1   TMCL    H6S     35       0.09      1.008
   147       CTL2      1   TMCL    CC7     36      -0.18     12.011
   148       HAL2      1   TMCL    H7R     36       0.09      1.008
   149       HAL2      1   TMCL    H7S     36       0.09      1.008
   150       CTL2      1   TMCL    CC8     37      -0.18     12.011
   151       HAL2      1   TMCL    H8R     37       0.09      1.008
   152       HAL2      1   TMCL    H8S     37       0.09      1.008
   153       CTL2      1   TMCL    CC9     38      -0.18     12.011
   154       HAL2      1   TMCL    H9R     38       0.09      1.008
   155       HAL2      1   TMCL    H9S     38       0.09      1.008
   156       CTL2      1   TMCL   CC10     39      -0.18     12.011
   157       HAL2      1   TMCL   H10R     39       0.09      1.008
   158       HAL2      1   TMCL   H10S     39       0.09      1.008
   159       CTL2      1   TMCL   CC11     40      -0.18     12.011
   160       HAL2      1   TMCL   H11R     40       0.09      1.008
   161       HAL2      1   TMCL   H11S     40       0.09      1.008
   162       CTL2      1   TMCL   CC12     41      -0.18     12.011
   163       HAL2      1   TMCL   H12R     41       0.09      1.008
   164       HAL2      1   TMCL   H12S     41       0.09      1.008
   165       CTL2      1   TMCL   CC13     42      -0.18     12.011
   166       HAL2      1   TMCL   H13R     42       0.09      1.008
   167       HAL2      1   TMCL   H13S     42       0.09      1.008
   168       CTL3      1   TMCL   CC14     43      -0.27     12.011
   169       HAL3      1   TMCL   H14R     43       0.09      1.008
   170       HAL3      1   TMCL   H14S     43       0.09      1.008
   171       HAL3      1   TMCL   H14T     43       0.09      1.008
   172       CTL2      1   TMCL    CD3     44      -0.18     12.011
   173       HAL2      1   TMCL    H3X     44       0.09      1.008
   174       HAL2      1   TMCL    H3Y     44       0.09      1.008
   175       CTL2      1   TMCL    CD4     45      -0.18     12.011
   176       HAL2      1   TMCL    H4X     45       0.09      1.008
   177       HAL2      1   TMCL    H4Y     45       0.09      1.008
   178       CTL2      1   TMCL    CD5     46      -0.18     12.011
   179       HAL2      1   TMCL    H5X     46       0.09      1.008
   180       HAL2      1   TMCL    H5Y     46       0.09      1.008
   181       CTL2      1   TMCL    CD6     47      -0.18     12.011
   182       HAL2      1   TMCL    H6X     47       0.09      1.008
   183       HAL2      1   TMCL    H6Y     47       0.09      1.008
   184       CTL2      1   TMCL    CD7     48      -0.18     12.011
   185       HAL2      1   TMCL    H7X     48       0.09      1.008
   186       HAL2      1   TMCL    H7Y     48       0.09      1.008
   187       CTL2      1   TMCL    CD8     49      -0.18     12.011
   188       HAL2      1   TMCL    H8X     49       0.09      1.008
   189       HAL2      1   TMCL    H8Y     49       0.09      1.008
   190       CTL2      1   TMCL    CD9     50      -0.18     12.011
   191       HAL2      1   TMCL    H9X     50       0.09      1.008
   192       HAL2      1   TMCL    H9Y     50       0.09      1.008
   193       CTL2      1   TMCL   CD10     51      -0.18     12.011
   194       HAL2      1   TMCL   H10X     51       0.09      1.008
   195       HAL2      1   TMCL   H10Y     51       0.09      1.008
   196       CTL2      1   TMCL   CD11     52      -0.18     12.011
   197       HAL2      1   TMCL   H11X     52       0.09      1.008
   198       HAL2      1   TMCL   H11Y     52       0.09      1.008
   199       CTL2      1   TMCL   CD12     53      -0.18     12.011
   200       HAL2      1   TMCL   H12X     53       0.09      1.008
   201       HAL2      1   TMCL   H12Y     53       0.09      1.008
   202       CTL2      1   TMCL   CD13     54      -0.18     12.011
   203       HAL2      1   TMCL   H13X     54       0.09      1.008
   204       HAL2      1   TMCL   H13Y     54       0.09      1.008
   205       CTL3      1   TMCL   CD14     55      -0.27     12.011
   206       HAL3      1   TMCL   H14X     55       0.09      1.008
   207       HAL3      1   TMCL   H14Y     55       0.09      1.008
   208       HAL3      1   TMCL   H14Z     55       0.09      1.008   ; qtot -2

[ bonds ]
;  ai    aj funct            c0            c1            c2            c3
    1     2     1 
    1     3     1 
    1     7     1 
    1    12     1 
    4     5     1 
    4     6     1 
    4     7     1 
    4     8     1 
    8     9     1 
    9    10     1 
    9    11     1 
    9    44     1 
   12    13     1 
   12    14     1 
   12    16     1 
   14    15     1 
   16    17     1 
   16    18     1 
   16    22     1 
   19    20     1 
   19    21     1 
   19    22     1 
   19    23     1 
   23    24     1 
   24    25     1 
   24    26     1 
   24    27     1 
   27    28     1 
   27    29     1 
   27    35     1 
   29    30     1 
   30    31     1 
   30    32     1 
   32    33     1 
   32    34     1 
   32    61     1 
   35    36     1 
   35    37     1 
   35    38     1 
   38    39     1 
   39    40     1 
   39    41     1 
   41    42     1 
   41    43     1 
   41    98     1 
   44    45     1 
   44    46     1 
   44    52     1 
   46    47     1 
   47    48     1 
   47    49     1 
   49    50     1 
   49    51     1 
   49   135     1 
   52    53     1 
   52    54     1 
   52    55     1 
   55    56     1 
   56    57     1 
   56    58     1 
   58    59     1 
   58    60     1 
   58   172     1 
   61    62     1 
   61    63     1 
   61    64     1 
   64    65     1 
   64    66     1 
   64    67     1 
   67    68     1 
   67    69     1 
   67    70     1 
   70    71     1 
   70    72     1 
   70    73     1 
   73    74     1 
   73    75     1 
   73    76     1 
   76    77     1 
   76    78     1 
   76    79     1 
   79    80     1 
   79    81     1 
   79    82     1 
   82    83     1 
   82    84     1 
   82    85     1 
   85    86     1 
   85    87     1 
   85    88     1 
   88    89     1 
   88    90     1 
   88    91     1 
   91    92     1 
   91    93     1 
   91    94     1 
   94    95     1 
   94    96     1 
   94    97     1 
   98    99     1 
   98   100     1 
   98   101     1 
  101   102     1 
  101   103     1 
  101   104     1 
  104   105     1 
  104   106     1 
  104   107     1 
  107   108     1 
  107   109     1 
  107   110     1 
  110   111     1 
  110   112     1 
  110   113     1 
  113   114     1 
  113   115     1 
  113   116     1 
  116   117     1 
  116   118     1 
  116   119     1 
  119   120     1 
  119   121     1 
  119   122     1 
  122   123     1 
  122   124     1 
  122   125     1 
  125   126     1 
  125   127     1 
  125   128     1 
  128   129     1 
  128   130     1 
  128   131     1 
  131   132     1 
  131   133     1 
  131   134     1 
  135   136     1 
  135   137     1 
  135   138     1 
  138   139     1 
  138   140     1 
  138   141     1 
  141   142     1 
  141   143     1 
  141   144     1 
  144   145     1 
  144   146     1 
  144   147     1 
  147   148     1 
  147   149     1 
  147   150     1 
  150   151     1 
  150   152     1 
  150   153     1 
  153   154     1 
  153   155     1 
  153   156     1 
  156   157     1 
  156   158     1 
  156   159     1 
  159   160     1 
  159   161     1 
  159   162     1 
  162   163     1 
  162   164     1 
  162   165     1 
  165   166     1 
  165   167     1 
  165   168     1 
  168   169     1 
  168   170     1 
  168   171     1 
  172   173     1 
  172   174     1 
  172   175     1 
  175   176     1 
  175   177     1 
  175   178     1 
  178   179     1 
  178   180     1 
  178   181     1 
  181   182     1 
  181   183     1 
  181   184     1 
  184   185     1 
  184   186     1 
  184   187     1 
  187   188     1 
  187   189     1 
  187   190     1 
  190   191     1 
  190   192     1 
  190   193     1 
  193   194     1 
  193   195     1 
  193   196     1 
  196   197     1 
  196   198     1 
  196   199     1 
  199   200     1 
  199   201     1 
  199   202     1 
  202   203     1 
  202   204     1 
  202   205     1 
  205   206     1 
  205   207     1 
  205   208     1 

[ pairs ]
;  ai    aj funct            c0            c1            c2            c3
    1     5     1 
    1     6     1 
    1     8     1 
    1    15     1 
    1    17     1 
    1    18     1 
    1    22     1 
    2     4     1 
    2    13     1 
    2    14     1 
    2    16     1 
    3     4     1 
    3    13     1 
    3    14     1 
    3    16     1 
    4    10     1 
    4    11     1 
    4    12     1 
    4    44     1 
    5     9     1 
    6     9     1 
    7     9     1 
    7    13     1 
    7    14     1 
    7    16     1 
    8    45     1 
    8    46     1 
    8    52     1 
    9    47     1 
    9    53     1 
    9    54     1 
    9    55     1 
   10    45     1 
   10    46     1 
   10    52     1 
   11    45     1 
   11    46     1 
   11    52     1 
   12    19     1 
   13    15     1 
   13    17     1 
   13    18     1 
   13    22     1 
   14    17     1 
   14    18     1 
   14    22     1 
   15    16     1 
   16    20     1 
   16    21     1 
   16    23     1 
   17    19     1 
   18    19     1 
   19    25     1 
   19    26     1 
   19    27     1 
   20    24     1 
   21    24     1 
   22    24     1 
   23    28     1 
   23    29     1 
   23    35     1 
   24    30     1 
   24    36     1 
   24    37     1 
   24    38     1 
   25    28     1 
   25    29     1 
   25    35     1 
   26    28     1 
   26    29     1 
   26    35     1 
   27    31     1 
   27    32     1 
   27    39     1 
   28    30     1 
   28    36     1 
   28    37     1 
   28    38     1 
   29    33     1 
   29    34     1 
   29    36     1 
   29    37     1 
   29    38     1 
   29    61     1 
   30    35     1 
   30    62     1 
   30    63     1 
   30    64     1 
   31    33     1 
   31    34     1 
   31    61     1 
   32    65     1 
   32    66     1 
   32    67     1 
   33    62     1 
   33    63     1 
   33    64     1 
   34    62     1 
   34    63     1 
   34    64     1 
   35    40     1 
   35    41     1 
   36    39     1 
   37    39     1 
   38    42     1 
   38    43     1 
   38    98     1 
   39    99     1 
   39   100     1 
   39   101     1 
   40    42     1 
   40    43     1 
   40    98     1 
   41   102     1 
   41   103     1 
   41   104     1 
   42    99     1 
   42   100     1 
   42   101     1 
   43    99     1 
   43   100     1 
   43   101     1 
   44    48     1 
   44    49     1 
   44    56     1 
   45    47     1 
   45    53     1 
   45    54     1 
   45    55     1 
   46    50     1 
   46    51     1 
   46    53     1 
   46    54     1 
   46    55     1 
   46   135     1 
   47    52     1 
   47   136     1 
   47   137     1 
   47   138     1 
   48    50     1 
   48    51     1 
   48   135     1 
   49   139     1 
   49   140     1 
   49   141     1 
   50   136     1 
   50   137     1 
   50   138     1 
   51   136     1 
   51   137     1 
   51   138     1 
   52    57     1 
   52    58     1 
   53    56     1 
   54    56     1 
   55    59     1 
   55    60     1 
   55   172     1 
   56   173     1 
   56   174     1 
   56   175     1 
   57    59     1 
   57    60     1 
   57   172     1 
   58   176     1 
   58   177     1 
   58   178     1 
   59   173     1 
   59   174     1 
   59   175     1 
   60   173     1 
   60   174     1 
   60   175     1 
   61    68     1 
   61    69     1 
   61    70     1 
   62    65     1 
   62    66     1 
   62    67     1 
   63    65     1 
   63    66     1 
   63    67     1 
   64    71     1 
   64    72     1 
   64    73     1 
   65    68     1 
   65    69     1 
   65    70     1 
   66    68     1 
   66    69     1 
   66    70     1 
   67    74     1 
   67    75     1 
   67    76     1 
   68    71     1 
   68    72     1 
   68    73     1 
   69    71     1 
   69    72     1 
   69    73     1 
   70    77     1 
   70    78     1 
   70    79     1 
   71    74     1 
   71    75     1 
   71    76     1 
   72    74     1 
   72    75     1 
   72    76     1 
   73    80     1 
   73    81     1 
   73    82     1 
   74    77     1 
   74    78     1 
   74    79     1 
   75    77     1 
   75    78     1 
   75    79     1 
   76    83     1 
   76    84     1 
   76    85     1 
   77    80     1 
   77    81     1 
   77    82     1 
   78    80     1 
   78    81     1 
   78    82     1 
   79    86     1 
   79    87     1 
   79    88     1 
   80    83     1 
   80    84     1 
   80    85     1 
   81    83     1 
   81    84     1 
   81    85     1 
   82    89     1 
   82    90     1 
   82    91     1 
   83    86     1 
   83    87     1 
   83    88     1 
   84    86     1 
   84    87     1 
   84    88     1 
   85    92     1 
   85    93     1 
   85    94     1 
   86    89     1 
   86    90     1 
   86    91     1 
   87    89     1 
   87    90     1 
   87    91     1 
   88    95     1 
   88    96     1 
   88    97     1 
   89    92     1 
   89    93     1 
   89    94     1 
   90    92     1 
   90    93     1 
   90    94     1 
   92    95     1 
   92    96     1 
   92    97     1 
   93    95     1 
   93    96     1 
   93    97     1 
   98   105     1 
   98   106     1 
   98   107     1 
   99   102     1 
   99   103     1 
   99   104     1 
  100   102     1 
  100   103     1 
  100   104     1 
  101   108     1 
  101   109     1 
  101   110     1 
  102   105     1 
  102   106     1 
  102   107     1 
  103   105     1 
  103   106     1 
  103   107     1 
  104   111     1 
  104   112     1 
  104   113     1 
  105   108     1 
  105   109     1 
  105   110     1 
  106   108     1 
  106   109     1 
  106   110     1 
  107   114     1 
  107   115     1 
  107   116     1 
  108   111     1 
  108   112     1 
  108   113     1 
  109   111     1 
  109   112     1 
  109   113     1 
  110   117     1 
  110   118     1 
  110   119     1 
  111   114     1 
  111   115     1 
  111   116     1 
  112   114     1 
  112   115     1 
  112   116     1 
  113   120     1 
  113   121     1 
  113   122     1 
  114   117     1 
  114   118     1 
  114   119     1 
  115   117     1 
  115   118     1 
  115   119     1 
  116   123     1 
  116   124     1 
  116   125     1 
  117   120     1 
  117   121     1 
  117   122     1 
  118   120     1 
  118   121     1 
  118   122     1 
  119   126     1 
  119   127     1 
  119   128     1 
  120   123     1 
  120   124     1 
  120   125     1 
  121   123     1 
  121   124     1 
  121   125     1 
  122   129     1 
  122   130     1 
  122   131     1 
  123   126     1 
  123   127     1 
  123   128     1 
  124   126     1 
  124   127     1 
  124   128     1 
  125   132     1 
  125   133     1 
  125   134     1 
  126   129     1 
  126   130     1 
  126   131     1 
  127   129     1 
  127   130     1 
  127   131     1 
  129   132     1 
  129   133     1 
  129   134     1 
  130   132     1 
  130   133     1 
  130   134     1 
  135   142     1 
  135   143     1 
  135   144     1 
  136   139     1 
  136   140     1 
  136   141     1 
  137   139     1 
  137   140     1 
  137   141     1 
  138   145     1 
  138   146     1 
  138   147     1 
  139   142     1 
  139   143     1 
  139   144     1 
  140   142     1 
  140   143     1 
  140   144     1 
  141   148     1 
  141   149     1 
  141   150     1 
  142   145     1 
  142   146     1 
  142   147     1 
  143   145     1 
  143   146     1 
  143   147     1 
  144   151     1 
  144   152     1 
  144   153     1 
  145   148     1 
  145   149     1 
  145   150     1 
  146   148     1 
  146   149     1 
  146   150     1 
  147   154     1 
  147   155     1 
  147   156     1 
  148   151     1 
  148   152     1 
  148   153     1 
  149   151     1 
  149   152     1 
  149   153     1 
  150   157     1 
  150   158     1 
  150   159     1 
  151   154     1 
  151   155     1 
  151   156     1 
  152   154     1 
  152   155     1 
  152   156     1 
  153   160     1 
  153   161     1 
  153   162     1 
  154   157     1 
  154   158     1 
  154   159     1 
  155   157     1 
  155   158     1 
  155   159     1 
  156   163     1 
  156   164     1 
  156   165     1 
  157   160     1 
  157   161     1 
  157   162     1 
  158   160     1 
  158   161     1 
  158   162     1 
  159   166     1 
  159   167     1 
  159   168     1 
  160   163     1 
  160   164     1 
  160   165     1 
  161   163     1 
  161   164     1 
  161   165     1 
  162   169     1 
  162   170     1 
  162   171     1 
  163   166     1 
  163   167     1 
  163   168     1 
  164   166     1 
  164   167     1 
  164   168     1 
  166   169     1 
  166   170     1 
  166   171     1 
  167   169     1 
  167   170     1 
  167   171     1 
  172   179     1 
  172   180     1 
  172   181     1 
  173   176     1 
  173   177     1 
  173   178     1 
  174   176     1 
  174   177     1 
  174   178     1 
  175   182     1 
  175   183     1 
  175   184     1 
  176   179     1 
  176   180     1 
  176   181     1 
  177   179     1 
  177   180     1 
  177   181     1 
  178   185     1 
  178   186     1 
  178   187     1 
  179   182     1 
  179   183     1 
  179   184     1 
  180   182     1 
  180   183     1 
  180   184     1 
  181   188     1 
  181   189     1 
  181   190     1 
  182   185     1 
  182   186     1 
  182   187     1 
  183   185     1 
  183   186     1 
  183   187     1 
  184   191     1 
  184   192     1 
  184   193     1 
  185   188     1 
  185   189     1 
  185   190     1 
  186   188     1 
  186   189     1 
  186   190     1 
  187   194     1 
  187   195     1 
  187   196     1 
  188   191     1 
  188   192     1 
  188   193     1 
  189   191     1 
  189   192     1 
  189   193     1 
  190   197     1 
  190   198     1 
  190   199     1 
  191   194     1 
  191   195     1 
  191   196     1 
  192   194     1 
  192   195     1 
  192   196     1 
  193   200     1 
  193   201     1 
  193   202     1 
  194   197     1 
  194   198     1 
  194   199     1 
  195   197     1 
  195   198     1 
  195   199     1 
  196   203     1 
  196   204     1 
  196   205     1 
  197   200     1 
  197   201     1 
  197   202     1 
  198   200     1 
  198   201     1 
  198   202     1 
  199   206     1 
  199   207     1 
  199   208     1 
  200   203     1 
  200   204     1 
  200   205     1 
  201   203     1 
  201   204     1 
  201   205     1 
  203   206     1 
  203   207     1 
  203   208     1 
  204   206     1 
  204   207     1 
  204   208     1 

[ angles ]
;  ai    aj    ak funct            c0            c1            c2            c3
    2     1     3     5 
    2     1     7     5 
    2     1    12     5 
    3     1     7     5 
    3     1    12     5 
    7     1    12     5 
    5     4     6     5 
    5     4     7     5 
    5     4     8     5 
    6     4     7     5 
    6     4     8     5 
    7     4     8     5 
    1     7     4     5 
    4     8     9     5 
    8     9    10     5 
    8     9    11     5 
    8     9    44     5 
   10     9    11     5 
   10     9    44     5 
   11     9    44     5 
    1    12    13     5 
    1    12    14     5 
    1    12    16     5 
   13    12    14     5 
   13    12    16     5 
   14    12    16     5 
   12    14    15     5 
   12    16    17     5 
   12    16    18     5 
   12    16    22     5 
   17    16    18     5 
   17    16    22     5 
   18    16    22     5 
   20    19    21     5 
   20    19    22     5 
   20    19    23     5 
   21    19    22     5 
   21    19    23     5 
   22    19    23     5 
   16    22    19     5 
   19    23    24     5 
   23    24    25     5 
   23    24    26     5 
   23    24    27     5 
   25    24    26     5 
   25    24    27     5 
   26    24    27     5 
   24    27    28     5 
   24    27    29     5 
   24    27    35     5 
   28    27    29     5 
   28    27    35     5 
   29    27    35     5 
   27    29    30     5 
   29    30    31     5 
   29    30    32     5 
   31    30    32     5 
   30    32    33     5 
   30    32    34     5 
   30    32    61     5 
   33    32    34     5 
   33    32    61     5 
   34    32    61     5 
   27    35    36     5 
   27    35    37     5 
   27    35    38     5 
   36    35    37     5 
   36    35    38     5 
   37    35    38     5 
   35    38    39     5 
   38    39    40     5 
   38    39    41     5 
   40    39    41     5 
   39    41    42     5 
   39    41    43     5 
   39    41    98     5 
   42    41    43     5 
   42    41    98     5 
   43    41    98     5 
    9    44    45     5 
    9    44    46     5 
    9    44    52     5 
   45    44    46     5 
   45    44    52     5 
   46    44    52     5 
   44    46    47     5 
   46    47    48     5 
   46    47    49     5 
   48    47    49     5 
   47    49    50     5 
   47    49    51     5 
   47    49   135     5 
   50    49    51     5 
   50    49   135     5 
   51    49   135     5 
   44    52    53     5 
   44    52    54     5 
   44    52    55     5 
   53    52    54     5 
   53    52    55     5 
   54    52    55     5 
   52    55    56     5 
   55    56    57     5 
   55    56    58     5 
   57    56    58     5 
   56    58    59     5 
   56    58    60     5 
   56    58   172     5 
   59    58    60     5 
   59    58   172     5 
   60    58   172     5 
   32    61    62     5 
   32    61    63     5 
   32    61    64     5 
   62    61    63     5 
   62    61    64     5 
   63    61    64     5 
   61    64    65     5 
   61    64    66     5 
   61    64    67     5 
   65    64    66     5 
   65    64    67     5 
   66    64    67     5 
   64    67    68     5 
   64    67    69     5 
   64    67    70     5 
   68    67    69     5 
   68    67    70     5 
   69    67    70     5 
   67    70    71     5 
   67    70    72     5 
   67    70    73     5 
   71    70    72     5 
   71    70    73     5 
   72    70    73     5 
   70    73    74     5 
   70    73    75     5 
   70    73    76     5 
   74    73    75     5 
   74    73    76     5 
   75    73    76     5 
   73    76    77     5 
   73    76    78     5 
   73    76    79     5 
   77    76    78     5 
   77    76    79     5 
   78    76    79     5 
   76    79    80     5 
   76    79    81     5 
   76    79    82     5 
   80    79    81     5 
   80    79    82     5 
   81    79    82     5 
   79    82    83     5 
   79    82    84     5 
   79    82    85     5 
   83    82    84     5 
   83    82    85     5 
   84    82    85     5 
   82    85    86     5 
   82    85    87     5 
   82    85    88     5 
   86    85    87     5 
   86    85    88     5 
   87    85    88     5 
   85    88    89     5 
   85    88    90     5 
   85    88    91     5 
   89    88    90     5 
   89    88    91     5 
   90    88    91     5 
   88    91    92     5 
   88    91    93     5 
   88    91    94     5 
   92    91    93     5 
   92    91    94     5 
   93    91    94     5 
   91    94    95     5 
   91    94    96     5 
   91    94    97     5 
   95    94    96     5 
   95    94    97     5 
   96    94    97     5 
   41    98    99     5 
   41    98   100     5 
   41    98   101     5 
   99    98   100     5 
   99    98   101     5 
  100    98   101     5 
   98   101   102     5 
   98   101   103     5 
   98   101   104     5 
  102   101   103     5 
  102   101   104     5 
  103   101   104     5 
  101   104   105     5 
  101   104   106     5 
  101   104   107     5 
  105   104   106     5 
  105   104   107     5 
  106   104   107     5 
  104   107   108     5 
  104   107   109     5 
  104   107   110     5 
  108   107   109     5 
  108   107   110     5 
  109   107   110     5 
  107   110   111     5 
  107   110   112     5 
  107   110   113     5 
  111   110   112     5 
  111   110   113     5 
  112   110   113     5 
  110   113   114     5 
  110   113   115     5 
  110   113   116     5 
  114   113   115     5 
  114   113   116     5 
  115   113   116     5 
  113   116   117     5 
  113   116   118     5 
  113   116   119     5 
  117   116   118     5 
  117   116   119     5 
  118   116   119     5 
  116   119   120     5 
  116   119   121     5 
  116   119   122     5 
  120   119   121     5 
  120   119   122     5 
  121   119   122     5 
  119   122   123     5 
  119   122   124     5 
  119   122   125     5 
  123   122   124     5 
  123   122   125     5 
  124   122   125     5 
  122   125   126     5 
  122   125   127     5 
  122   125   128     5 
  126   125   127     5 
  126   125   128     5 
  127   125   128     5 
  125   128   129     5 
  125   128   130     5 
  125   128   131     5 
  129   128   130     5 
  129   128   131     5 
  130   128   131     5 
  128   131   132     5 
  128   131   133     5 
  128   131   134     5 
  132   131   133     5 
  132   131   134     5 
  133   131   134     5 
   49   135   136     5 
   49   135   137     5 
   49   135   138     5 
  136   135   137     5 
  136   135   138     5 
  137   135   138     5 
  135   138   139     5 
  135   138   140     5 
  135   138   141     5 
  139   138   140     5 
  139   138   141     5 
  140   138   141     5 
  138   141   142     5 
  138   141   143     5 
  138   141   144     5 
  142   141   143     5 
  142   141   144     5 
  143   141   144     5 
  141   144   145     5 
  141   144   146     5 
  141   144   147     5 
  145   144   146     5 
  145   144   147     5 
  146   144   147     5 
  144   147   148     5 
  144   147   149     5 
  144   147   150     5 
  148   147   149     5 
  148   147   150     5 
  149   147   150     5 
  147   150   151     5 
  147   150   152     5 
  147   150   153     5 
  151   150   152     5 
  151   150   153     5 
  152   150   153     5 
  150   153   154     5 
  150   153   155     5 
  150   153   156     5 
  154   153   155     5 
  154   153   156     5 
  155   153   156     5 
  153   156   157     5 
  153   156   158     5 
  153   156   159     5 
  157   156   158     5 
  157   156   159     5 
  158   156   159     5 
  156   159   160     5 
  156   159   161     5 
  156   159   162     5 
  160   159   161     5 
  160   159   162     5 
  161   159   162     5 
  159   162   163     5 
  159   162   164     5 
  159   162   165     5 
  163   162   164     5 
  163   162   165     5 
  164   162   165     5 
  162   165   166     5 
  162   165   167     5 
  162   165   168     5 
  166   165   167     5 
  166   165   168     5 
  167   165   168     5 
  165   168   169     5 
  165   168   170     5 
  165   168   171     5 
  169   168   170     5 
  169   168   171     5 
  170   168   171     5 
   58   172   173     5 
   58   172   174     5 
   58   172   175     5 
  173   172   174     5 
  173   172   175     5 
  174   172   175     5 
  172   175   176     5 
  172   175   177     5 
  172   175   178     5 
  176   175   177     5 
  176   175   178     5 
  177   175   178     5 
  175   178   179     5 
  175   178   180     5 
  175   178   181     5 
  179   178   180     5 
  179   178   181     5 
  180   178   181     5 
  178   181   182     5 
  178   181   183     5 
  178   181   184     5 
  182   181   183     5 
  182   181   184     5 
  183   181   184     5 
  181   184   185     5 
  181   184   186     5 
  181   184   187     5 
  185   184   186     5 
  185   184   187     5 
  186   184   187     5 
  184   187   188     5 
  184   187   189     5 
  184   187   190     5 
  188   187   189     5 
  188   187   190     5 
  189   187   190     5 
  187   190   191     5 
  187   190   192     5 
  187   190   193     5 
  191   190   192     5 
  191   190   193     5 
  192   190   193     5 
  190   193   194     5 
  190   193   195     5 
  190   193   196     5 
  194   193   195     5 
  194   193   196     5 
  195   193   196     5 
  193   196   197     5 
  193   196   198     5 
  193   196   199     5 
  197   196   198     5 
  197   196   199     5 
  198   196   199     5 
  196   199   200     5 
  196   199   201     5 
  196   199   202     5 
  200   199   201     5 
  200   199   202     5 
  201   199   202     5 
  199   202   203     5 
  199   202   204     5 
  199   202   205     5 
  203   202   204     5 
  203   202   205     5 
  204   202   205     5 
  202   205   206     5 
  202   205   207     5 
  202   205   208     5 
  206   205   207     5 
  206   205   208     5 
  207   205   208     5 

[ dihedrals ]
;  ai    aj    ak    al funct            c0            c1            c2            c3            c4            c5
    2     1     7     4     9 
    3     1     7     4     9 
   12     1     7     4     9 
    2     1    12    13     9 
    2     1    12    14     9 
    2     1    12    16     9 
    3     1    12    13     9 
    3     1    12    14     9 
    3     1    12    16     9 
    7     1    12    13     9 
    7     1    12    14     9 
    7     1    12    16     9 
    5     4     7     1     9 
    6     4     7     1     9 
    8     4     7     1     9 
    5     4     8     9     9 
    6     4     8     9     9 
    7     4     8     9     9 
    4     8     9    10     9 
    4     8     9    11     9 
    4     8     9    44     9 
    8     9    44    45     9 
    8     9    44    46     9 
    8     9    44    52     9 
   10     9    44    45     9 
   10     9    44    46     9 
   10     9    44    52     9 
   11     9    44    45     9 
   11     9    44    46     9 
   11     9    44    52     9 
    1    12    14    15     9 
   13    12    14    15     9 
   16    12    14    15     9 
    1    12    16    17     9 
    1    12    16    18     9 
    1    12    16    22     9 
   13    12    16    17     9 
   13    12    16    18     9 
   13    12    16    22     9 
   14    12    16    17     9 
   14    12    16    18     9 
   14    12    16    22     9 
   12    16    22    19     9 
   17    16    22    19     9 
   18    16    22    19     9 
   20    19    22    16     9 
   21    19    22    16     9 
   23    19    22    16     9 
   20    19    23    24     9 
   21    19    23    24     9 
   22    19    23    24     9 
   19    23    24    25     9 
   19    23    24    26     9 
   19    23    24    27     9 
   23    24    27    28     9 
   23    24    27    29     9 
   23    24    27    35     9 
   25    24    27    28     9 
   25    24    27    29     9 
   25    24    27    35     9 
   26    24    27    28     9 
   26    24    27    29     9 
   26    24    27    35     9 
   24    27    29    30     9 
   28    27    29    30     9 
   35    27    29    30     9 
   24    27    35    36     9 
   24    27    35    37     9 
   24    27    35    38     9 
   28    27    35    36     9 
   28    27    35    37     9 
   28    27    35    38     9 
   29    27    35    36     9 
   29    27    35    37     9 
   29    27    35    38     9 
   27    29    30    31     9 
   27    29    30    32     9 
   29    30    32    33     9 
   29    30    32    34     9 
   29    30    32    61     9 
   31    30    32    33     9 
   31    30    32    34     9 
   31    30    32    61     9 
   30    32    61    62     9 
   30    32    61    63     9 
   30    32    61    64     9 
   33    32    61    62     9 
   33    32    61    63     9 
   33    32    61    64     9 
   34    32    61    62     9 
   34    32    61    63     9 
   34    32    61    64     9 
   27    35    38    39     9 
   36    35    38    39     9 
   37    35    38    39     9 
   35    38    39    40     9 
   35    38    39    41     9 
   38    39    41    42     9 
   38    39    41    43     9 
   38    39    41    98     9 
   40    39    41    42     9 
   40    39    41    43     9 
   40    39    41    98     9 
   39    41    98    99     9 
   39    41    98   100     9 
   39    41    98   101     9 
   42    41    98    99     9 
   42    41    98   100     9 
   42    41    98   101     9 
   43    41    98    99     9 
   43    41    98   100     9 
   43    41    98   101     9 
    9    44    46    47     9 
   45    44    46    47     9 
   52    44    46    47     9 
    9    44    52    53     9 
    9    44    52    54     9 
    9    44    52    55     9 
   45    44    52    53     9 
   45    44    52    54     9 
   45    44    52    55     9 
   46    44    52    53     9 
   46    44    52    54     9 
   46    44    52    55     9 
   44    46    47    48     9 
   44    46    47    49     9 
   46    47    49    50     9 
   46    47    49    51     9 
   46    47    49   135     9 
   48    47    49    50     9 
   48    47    49    51     9 
   48    47    49   135     9 
   47    49   135   136     9 
   47    49   135   137     9 
   47    49   135   138     9 
   50    49   135   136     9 
   50    49   135   137     9 
   50    49   135   138     9 
   51    49   135   136     9 
   51    49   135   137     9 
   51    49   135   138     9 
   44    52    55    56     9 
   53    52    55    56     9 
   54    52    55    56     9 
   52    55    56    57     9 
   52    55    56    58     9 
   55    56    58    59     9 
   55    56    58    60     9 
   55    56    58   172     9 
   57    56    58    59     9 
   57    56    58    60     9 
   57    56    58   172     9 
   56    58   172   173     9 
   56    58   172   174     9 
   56    58   172   175     9 
   59    58   172   173     9 
   59    58   172   174     9 
   59    58   172   175     9 
   60    58   172   173     9 
   60    58   172   174     9 
   60    58   172   175     9 
   32    61    64    65     9 
   32    61    64    66     9 
   32    61    64    67     9 
   62    61    64    65     9 
   62    61    64    66     9 
   62    61    64    67     9 
   63    61    64    65     9 
   63    61    64    66     9 
   63    61    64    67     9 
   61    64    67    68     9 
   61    64    67    69     9 
   61    64    67    70     9 
   65    64    67    68     9 
   65    64    67    69     9 
   65    64    67    70     9 
   66    64    67    68     9 
   66    64    67    69     9 
   66    64    67    70     9 
   64    67    70    71     9 
   64    67    70    72     9 
   64    67    70    73     9 
   68    67    70    71     9 
   68    67    70    72     9 
   68    67    70    73     9 
   69    67    70    71     9 
   69    67    70    72     9 
   69    67    70    73     9 
   67    70    73    74     9 
   67    70    73    75     9 
   67    70    73    76     9 
   71    70    73    74     9 
   71    70    73    75     9 
   71    70    73    76     9 
   72    70    73    74     9 
   72    70    73    75     9 
   72    70    73    76     9 
   70    73    76    77     9 
   70    73    76    78     9 
   70    73    76    79     9 
   74    73    76    77     9 
   74    73    76    78     9 
   74    73    76    79     9 
   75    73    76    77     9 
   75    73    76    78     9 
   75    73    76    79     9 
   73    76    79    80     9 
   73    76    79    81     9 
   73    76    79    82     9 
   77    76    79    80     9 
   77    76    79    81     9 
   77    76    79    82     9 
   78    76    79    80     9 
   78    76    79    81     9 
   78    76    79    82     9 
   76    79    82    83     9 
   76    79    82    84     9 
   76    79    82    85     9 
   80    79    82    83     9 
   80    79    82    84     9 
   80    79    82    85     9 
   81    79    82    83     9 
   81    79    82    84     9 
   81    79    82    85     9 
   79    82    85    86     9 
   79    82    85    87     9 
   79    82    85    88     9 
   83    82    85    86     9 
   83    82    85    87     9 
   83    82    85    88     9 
   84    82    85    86     9 
   84    82    85    87     9 
   84    82    85    88     9 
   82    85    88    89     9 
   82    85    88    90     9 
   82    85    88    91     9 
   86    85    88    89     9 
   86    85    88    90     9 
   86    85    88    91     9 
   87    85    88    89     9 
   87    85    88    90     9 
   87    85    88    91     9 
   85    88    91    92     9 
   85    88    91    93     9 
   85    88    91    94     9 
   89    88    91    92     9 
   89    88    91    93     9 
   89    88    91    94     9 
   90    88    91    92     9 
   90    88    91    93     9 
   90    88    91    94     9 
   88    91    94    95     9 
   88    91    94    96     9 
   88    91    94    97     9 
   92    91    94    95     9 
   92    91    94    96     9 
   92    91    94    97     9 
   93    91    94    95     9 
   93    91    94    96     9 
   93    91    94    97     9 
   41    98   101   102     9 
   41    98   101   103     9 
   41    98   101   104     9 
   99    98   101   102     9 
   99    98   101   103     9 
   99    98   101   104     9 
  100    98   101   102     9 
  100    98   101   103     9 
  100    98   101   104     9 
   98   101   104   105     9 
   98   101   104   106     9 
   98   101   104   107     9 
  102   101   104   105     9 
  102   101   104   106     9 
  102   101   104   107     9 
  103   101   104   105     9 
  103   101   104   106     9 
  103   101   104   107     9 
  101   104   107   108     9 
  101   104   107   109     9 
  101   104   107   110     9 
  105   104   107   108     9 
  105   104   107   109     9 
  105   104   107   110     9 
  106   104   107   108     9 
  106   104   107   109     9 
  106   104   107   110     9 
  104   107   110   111     9 
  104   107   110   112     9 
  104   107   110   113     9 
  108   107   110   111     9 
  108   107   110   112     9 
  108   107   110   113     9 
  109   107   110   111     9 
  109   107   110   112     9 
  109   107   110   113     9 
  107   110   113   114     9 
  107   110   113   115     9 
  107   110   113   116     9 
  111   110   113   114     9 
  111   110   113   115     9 
  111   110   113   116     9 
  112   110   113   114     9 
  112   110   113   115     9 
  112   110   113   116     9 
  110   113   116   117     9 
  110   113   116   118     9 
  110   113   116   119     9 
  114   113   116   117     9 
  114   113   116   118     9 
  114   113   116   119     9 
  115   113   116   117     9 
  115   113   116   118     9 
  115   113   116   119     9 
  113   116   119   120     9 
  113   116   119   121     9 
  113   116   119   122     9 
  117   116   119   120     9 
  117   116   119   121     9 
  117   116   119   122     9 
  118   116   119   120     9 
  118   116   119   121     9 
  118   116   119   122     9 
  116   119   122   123     9 
  116   119   122   124     9 
  116   119   122   125     9 
  120   119   122   123     9 
  120   119   122   124     9 
  120   119   122   125     9 
  121   119   122   123     9 
  121   119   122   124     9 
  121   119   122   125     9 
  119   122   125   126     9 
  119   122   125   127     9 
  119   122   125   128     9 
  123   122   125   126     9 
  123   122   125   127     9 
  123   122   125   128     9 
  124   122   125   126     9 
  124   122   125   127     9 
  124   122   125   128     9 
  122   125   128   129     9 
  122   125   128   130     9 
  122   125   128   131     9 
  126   125   128   129     9 
  126   125   128   130     9 
  126   125   128   131     9 
  127   125   128   129     9 
  127   125   128   130     9 
  127   125   128   131     9 
  125   128   131   132     9 
  125   128   131   133     9 
  125   128   131   134     9 
  129   128   131   132     9 
  129   128   131   133     9 
  129   128   131   134     9 
  130   128   131   132     9 
  130   128   131   133     9 
  130   128   131   134     9 
   49   135   138   139     9 
   49   135   138   140     9 
   49   135   138   141     9 
  136   135   138   139     9 
  136   135   138   140     9 
  136   135   138   141     9 
  137   135   138   139     9 
  137   135   138   140     9 
  137   135   138   141     9 
  135   138   141   142     9 
  135   138   141   143     9 
  135   138   141   144     9 
  139   138   141   142     9 
  139   138   141   143     9 
  139   138   141   144     9 
  140   138   141   142     9 
  140   138   141   143     9 
  140   138   141   144     9 
  138   141   144   145     9 
  138   141   144   146     9 
  138   141   144   147     9 
  142   141   144   145     9 
  142   141   144   146     9 
  142   141   144   147     9 
  143   141   144   145     9 
  143   141   144   146     9 
  143   141   144   147     9 
  141   144   147   148     9 
  141   144   147   149     9 
  141   144   147   150     9 
  145   144   147   148     9 
  145   144   147   149     9 
  145   144   147   150     9 
  146   144   147   148     9 
  146   144   147   149     9 
  146   144   147   150     9 
  144   147   150   151     9 
  144   147   150   152     9 
  144   147   150   153     9 
  148   147   150   151     9 
  148   147   150   152     9 
  148   147   150   153     9 
  149   147   150   151     9 
  149   147   150   152     9 
  149   147   150   153     9 
  147   150   153   154     9 
  147   150   153   155     9 
  147   150   153   156     9 
  151   150   153   154     9 
  151   150   153   155     9 
  151   150   153   156     9 
  152   150   153   154     9 
  152   150   153   155     9 
  152   150   153   156     9 
  150   153   156   157     9 
  150   153   156   158     9 
  150   153   156   159     9 
  154   153   156   157     9 
  154   153   156   158     9 
  154   153   156   159     9 
  155   153   156   157     9 
  155   153   156   158     9 
  155   153   156   159     9 
  153   156   159   160     9 
  153   156   159   161     9 
  153   156   159   162     9 
  157   156   159   160     9 
  157   156   159   161     9 
  157   156   159   162     9 
  158   156   159   160     9 
  158   156   159   161     9 
  158   156   159   162     9 
  156   159   162   163     9 
  156   159   162   164     9 
  156   159   162   165     9 
  160   159   162   163     9 
  160   159   162   164     9 
  160   159   162   165     9 
  161   159   162   163     9 
  161   159   162   164     9 
  161   159   162   165     9 
  159   162   165   166     9 
  159   162   165   167     9 
  159   162   165   168     9 
  163   162   165   166     9 
  163   162   165   167     9 
  163   162   165   168     9 
  164   162   165   166     9 
  164   162   165   167     9 
  164   162   165   168     9 
  162   165   168   169     9 
  162   165   168   170     9 
  162   165   168   171     9 
  166   165   168   169     9 
  166   165   168   170     9 
  166   165   168   171     9 
  167   165   168   169     9 
  167   165   168   170     9 
  167   165   168   171     9 
   58   172   175   176     9 
   58   172   175   177     9 
   58   172   175   178     9 
  173   172   175   176     9 
  173   172   175   177     9 
  173   172   175   178     9 
  174   172   175   176     9 
  174   172   175   177     9 
  174   172   175   178     9 
  172   175   178   179     9 
  172   175   178   180     9 
  172   175   178   181     9 
  176   175   178   179     9 
  176   175   178   180     9 
  176   175   178   181     9 
  177   175   178   179     9 
  177   175   178   180     9 
  177   175   178   181     9 
  175   178   181   182     9 
  175   178   181   183     9 
  175   178   181   184     9 
  179   178   181   182     9 
  179   178   181   183     9 
  179   178   181   184     9 
  180   178   181   182     9 
  180   178   181   183     9 
  180   178   181   184     9 
  178   181   184   185     9 
  178   181   184   186     9 
  178   181   184   187     9 
  182   181   184   185     9 
  182   181   184   186     9 
  182   181   184   187     9 
  183   181   184   185     9 
  183   181   184   186     9 
  183   181   184   187     9 
  181   184   187   188     9 
  181   184   187   189     9 
  181   184   187   190     9 
  185   184   187   188     9 
  185   184   187   189     9 
  185   184   187   190     9 
  186   184   187   188     9 
  186   184   187   189     9 
  186   184   187   190     9 
  184   187   190   191     9 
  184   187   190   192     9 
  184   187   190   193     9 
  188   187   190   191     9 
  188   187   190   192     9 
  188   187   190   193     9 
  189   187   190   191     9 
  189   187   190   192     9 
  189   187   190   193     9 
  187   190   193   194     9 
  187   190   193   195     9 
  187   190   193   196     9 
  191   190   193   194     9 
  191   190   193   195     9 
  191   190   193   196     9 
  192   190   193   194     9 
  192   190   193   195     9 
  192   190   193   196     9 
  190   193   196   197     9 
  190   193   196   198     9 
  190   193   196   199     9 
  194   193   196   197     9 
  194   193   196   198     9 
  194   193   196   199     9 
  195   193   196   197     9 
  195   193   196   198     9 
  195   193   196   199     9 
  193   196   199   200     9 
  193   196   199   201     9 
  193   196   199   202     9 
  197   196   199   200     9 
  197   196   199   201     9 
  197   196   199   202     9 
  198   196   199   200     9 
  198   196   199   201     9 
  198   196   199   202     9 
  196   199   202   203     9 
  196   199   202   204     9 
  196   199   202   205     9 
  200   199   202   203     9 
  200   199   202   204     9 
  200   199   202   205     9 
  201   199   202   203     9 
  201   199   202   204     9 
  201   199   202   205     9 
  199   202   205   206     9 
  199   202   205   207     9 
  199   202   205   208     9 
  203   202   205   206     9 
  203   202   205   207     9 
  203   202   205   208     9 
  204   202   205   206     9 
  204   202   205   207     9 
  204   202   205   208     9 

[ dihedrals ]
;  ai    aj    ak    al funct            c0            c1            c2            c3
   30    29    32    31     2 
   39    38    41    40     2 
   47    46    49    48     2 
   56    55    58    57     2 

; Include Position restraint file
#ifdef POSRES
#include "TMCL_posre.itp"
#endif

