[ moleculetype ]
; Name            nrexcl
DOPA                3

[ atoms ]
;   nr       type  resnr residue  atom   cgnr     charge       mass  typeB    chargeB      massB
; residue   1 DOPA rtp DOPA q -1.0
     1         PL      1   DOPA      P      1        1.5     30.974
     2        O2L      1   DOPA    O13      1      -0.82    15.9994
     3        O2L      1   DOPA    O14      1      -0.82    15.9994
     4        OHL      1   DOPA    O12      1      -0.68    15.9994
     5        HOL      1   DOPA    H12      1       0.34      1.008
     6       OSLP      1   DOPA    O11      1      -0.62    15.9994
     7       CTL2      1   DOPA     C1      1      -0.08     12.011
     8       HAL2      1   DOPA     HA      1       0.09      1.008
     9       HAL2      1   DOPA     HB      1       0.09      1.008
    10       CTL1      1   DOPA     C2      2       0.17     12.011
    11       HAL1      1   DOPA     HS      2       0.09      1.008
    12        OSL      1   DOPA    O21      2      -0.49    15.9994
    13         CL      1   DOPA    C21      2        0.9     12.011
    14        OBL      1   DOPA    O22      2      -0.63    15.9994
    15       CTL2      1   DOPA    C22      2      -0.22     12.011
    16       HAL2      1   DOPA    H2R      2       0.09      1.008
    17       HAL2      1   DOPA    H2S      2       0.09      1.008
    18       CTL2      1   DOPA     C3      3       0.08     12.011
    19       HAL2      1   DOPA     HX      3       0.09      1.008
    20       HAL2      1   DOPA     HY      3       0.09      1.008
    21        OSL      1   DOPA    O31      3      -0.49    15.9994
    22         CL      1   DOPA    C31      3        0.9     12.011
    23        OBL      1   DOPA    O32      3      -0.63    15.9994
    24       CTL2      1   DOPA    C32      3      -0.22     12.011
    25       HAL2      1   DOPA    H2X      3       0.09      1.008
    26       HAL2      1   DOPA    H2Y      3       0.09      1.008
    27       CTL2      1   DOPA    C23      4      -0.18     12.011
    28       HAL2      1   DOPA    H3R      4       0.09      1.008
    29       HAL2      1   DOPA    H3S      4       0.09      1.008
    30       CTL2      1   DOPA    C24      5      -0.18     12.011
    31       HAL2      1   DOPA    H4R      5       0.09      1.008
    32       HAL2      1   DOPA    H4S      5       0.09      1.008
    33       CTL2      1   DOPA    C25      6      -0.18     12.011
    34       HAL2      1   DOPA    H5R      6       0.09      1.008
    35       HAL2      1   DOPA    H5S      6       0.09      1.008
    36       CTL2      1   DOPA    C26      7      -0.18     12.011
    37       HAL2      1   DOPA    H6R      7       0.09      1.008
    38       HAL2      1   DOPA    H6S      7       0.09      1.008
    39       CTL2      1   DOPA    C27      8      -0.18     12.011
    40       HAL2      1   DOPA    H7R      8       0.09      1.008
    41       HAL2      1   DOPA    H7S      8       0.09      1.008
    42       CTL2      1   DOPA    C28      9      -0.18     12.011
    43       HAL2      1   DOPA    H8R      9       0.09      1.008
    44       HAL2      1   DOPA    H8S      9       0.09      1.008
    45       CEL1      1   DOPA    C29     10      -0.15     12.011
    46       HEL1      1   DOPA    H9R     10       0.15      1.008
    47       CEL1      1   DOPA   C210     11      -0.15     12.011
    48       HEL1      1   DOPA   H10R     11       0.15      1.008
    49       CTL2      1   DOPA   C211     12      -0.18     12.011
    50       HAL2      1   DOPA   H11R     12       0.09      1.008
    51       HAL2      1   DOPA   H11S     12       0.09      1.008
    52       CTL2      1   DOPA   C212     13      -0.18     12.011
    53       HAL2      1   DOPA   H12R     13       0.09      1.008
    54       HAL2      1   DOPA   H12S     13       0.09      1.008
    55       CTL2      1   DOPA   C213     14      -0.18     12.011
    56       HAL2      1   DOPA   H13R     14       0.09      1.008
    57       HAL2      1   DOPA   H13S     14       0.09      1.008
    58       CTL2      1   DOPA   C214     15      -0.18     12.011
    59       HAL2      1   DOPA   H14R     15       0.09      1.008
    60       HAL2      1   DOPA   H14S     15       0.09      1.008
    61       CTL2      1   DOPA   C215     16      -0.18     12.011
    62       HAL2      1   DOPA   H15R     16       0.09      1.008
    63       HAL2      1   DOPA   H15S     16       0.09      1.008
    64       CTL2      1   DOPA   C216     17      -0.18     12.011
    65       HAL2      1   DOPA   H16R     17       0.09      1.008
    66       HAL2      1   DOPA   H16S     17       0.09      1.008
    67       CTL2      1   DOPA   C217     18      -0.18     12.011
    68       HAL2      1   DOPA   H17R     18       0.09      1.008
    69       HAL2      1   DOPA   H17S     18       0.09      1.008
    70       CTL3      1   DOPA   C218     19      -0.27     12.011
    71       HAL3      1   DOPA   H18R     19       0.09      1.008
    72       HAL3      1   DOPA   H18S     19       0.09      1.008
    73       HAL3      1   DOPA   H18T     19       0.09      1.008
    74       CTL2      1   DOPA    C33     20      -0.18     12.011
    75       HAL2      1   DOPA    H3X     20       0.09      1.008
    76       HAL2      1   DOPA    H3Y     20       0.09      1.008
    77       CTL2      1   DOPA    C34     21      -0.18     12.011
    78       HAL2      1   DOPA    H4X     21       0.09      1.008
    79       HAL2      1   DOPA    H4Y     21       0.09      1.008
    80       CTL2      1   DOPA    C35     22      -0.18     12.011
    81       HAL2      1   DOPA    H5X     22       0.09      1.008
    82       HAL2      1   DOPA    H5Y     22       0.09      1.008
    83       CTL2      1   DOPA    C36     23      -0.18     12.011
    84       HAL2      1   DOPA    H6X     23       0.09      1.008
    85       HAL2      1   DOPA    H6Y     23       0.09      1.008
    86       CTL2      1   DOPA    C37     24      -0.18     12.011
    87       HAL2      1   DOPA    H7X     24       0.09      1.008
    88       HAL2      1   DOPA    H7Y     24       0.09      1.008
    89       CTL2      1   DOPA    C38     25      -0.18     12.011
    90       HAL2      1   DOPA    H8X     25       0.09      1.008
    91       HAL2      1   DOPA    H8Y     25       0.09      1.008
    92       CEL1      1   DOPA    C39     26      -0.15     12.011
    93       HEL1      1   DOPA    H9X     26       0.15      1.008
    94       CEL1      1   DOPA   C310     27      -0.15     12.011
    95       HEL1      1   DOPA   H10X     27       0.15      1.008
    96       CTL2      1   DOPA   C311     28      -0.18     12.011
    97       HAL2      1   DOPA   H11X     28       0.09      1.008
    98       HAL2      1   DOPA   H11Y     28       0.09      1.008
    99       CTL2      1   DOPA   C312     29      -0.18     12.011
   100       HAL2      1   DOPA   H12X     29       0.09      1.008
   101       HAL2      1   DOPA   H12Y     29       0.09      1.008
   102       CTL2      1   DOPA   C313     30      -0.18     12.011
   103       HAL2      1   DOPA   H13X     30       0.09      1.008
   104       HAL2      1   DOPA   H13Y     30       0.09      1.008
   105       CTL2      1   DOPA   C314     31      -0.18     12.011
   106       HAL2      1   DOPA   H14X     31       0.09      1.008
   107       HAL2      1   DOPA   H14Y     31       0.09      1.008
   108       CTL2      1   DOPA   C315     32      -0.18     12.011
   109       HAL2      1   DOPA   H15X     32       0.09      1.008
   110       HAL2      1   DOPA   H15Y     32       0.09      1.008
   111       CTL2      1   DOPA   C316     33      -0.18     12.011
   112       HAL2      1   DOPA   H16X     33       0.09      1.008
   113       HAL2      1   DOPA   H16Y     33       0.09      1.008
   114       CTL2      1   DOPA   C317     34      -0.18     12.011
   115       HAL2      1   DOPA   H17X     34       0.09      1.008
   116       HAL2      1   DOPA   H17Y     34       0.09      1.008
   117       CTL3      1   DOPA   C318     35      -0.27     12.011
   118       HAL3      1   DOPA   H18X     35       0.09      1.008
   119       HAL3      1   DOPA   H18Y     35       0.09      1.008
   120       HAL3      1   DOPA   H18Z     35       0.09      1.008   ; qtot -1

[ bonds ]
;  ai    aj funct            c0            c1            c2            c3
    1     2     1 
    1     3     1 
    1     4     1 
    1     6     1 
    4     5     1 
    6     7     1 
    7     8     1 
    7     9     1 
    7    10     1 
   10    11     1 
   10    12     1 
   10    18     1 
   12    13     1 
   13    14     1 
   13    15     1 
   15    16     1 
   15    17     1 
   15    27     1 
   18    19     1 
   18    20     1 
   18    21     1 
   21    22     1 
   22    23     1 
   22    24     1 
   24    25     1 
   24    26     1 
   24    74     1 
   27    28     1 
   27    29     1 
   27    30     1 
   30    31     1 
   30    32     1 
   30    33     1 
   33    34     1 
   33    35     1 
   33    36     1 
   36    37     1 
   36    38     1 
   36    39     1 
   39    40     1 
   39    41     1 
   39    42     1 
   42    43     1 
   42    44     1 
   42    45     1 
   45    46     1 
   45    47     1 
   47    48     1 
   47    49     1 
   49    50     1 
   49    51     1 
   49    52     1 
   52    53     1 
   52    54     1 
   52    55     1 
   55    56     1 
   55    57     1 
   55    58     1 
   58    59     1 
   58    60     1 
   58    61     1 
   61    62     1 
   61    63     1 
   61    64     1 
   64    65     1 
   64    66     1 
   64    67     1 
   67    68     1 
   67    69     1 
   67    70     1 
   70    71     1 
   70    72     1 
   70    73     1 
   74    75     1 
   74    76     1 
   74    77     1 
   77    78     1 
   77    79     1 
   77    80     1 
   80    81     1 
   80    82     1 
   80    83     1 
   83    84     1 
   83    85     1 
   83    86     1 
   86    87     1 
   86    88     1 
   86    89     1 
   89    90     1 
   89    91     1 
   89    92     1 
   92    93     1 
   92    94     1 
   94    95     1 
   94    96     1 
   96    97     1 
   96    98     1 
   96    99     1 
   99   100     1 
   99   101     1 
   99   102     1 
  102   103     1 
  102   104     1 
  102   105     1 
  105   106     1 
  105   107     1 
  105   108     1 
  108   109     1 
  108   110     1 
  108   111     1 
  111   112     1 
  111   113     1 
  111   114     1 
  114   115     1 
  114   116     1 
  114   117     1 
  117   118     1 
  117   119     1 
  117   120     1 

[ pairs ]
;  ai    aj funct            c0            c1            c2            c3
    1     8     1 
    1     9     1 
    1    10     1 
    2     5     1 
    2     7     1 
    3     5     1 
    3     7     1 
    4     7     1 
    5     6     1 
    6    11     1 
    6    12     1 
    6    18     1 
    7    13     1 
    7    19     1 
    7    20     1 
    7    21     1 
    8    11     1 
    8    12     1 
    8    18     1 
    9    11     1 
    9    12     1 
    9    18     1 
   10    14     1 
   10    15     1 
   10    22     1 
   11    13     1 
   11    19     1 
   11    20     1 
   11    21     1 
   12    16     1 
   12    17     1 
   12    19     1 
   12    20     1 
   12    21     1 
   12    27     1 
   13    18     1 
   13    28     1 
   13    29     1 
   13    30     1 
   14    16     1 
   14    17     1 
   14    27     1 
   15    31     1 
   15    32     1 
   15    33     1 
   16    28     1 
   16    29     1 
   16    30     1 
   17    28     1 
   17    29     1 
   17    30     1 
   18    23     1 
   18    24     1 
   19    22     1 
   20    22     1 
   21    25     1 
   21    26     1 
   21    74     1 
   22    75     1 
   22    76     1 
   22    77     1 
   23    25     1 
   23    26     1 
   23    74     1 
   24    78     1 
   24    79     1 
   24    80     1 
   25    75     1 
   25    76     1 
   25    77     1 
   26    75     1 
   26    76     1 
   26    77     1 
   27    34     1 
   27    35     1 
   27    36     1 
   28    31     1 
   28    32     1 
   28    33     1 
   29    31     1 
   29    32     1 
   29    33     1 
   30    37     1 
   30    38     1 
   30    39     1 
   31    34     1 
   31    35     1 
   31    36     1 
   32    34     1 
   32    35     1 
   32    36     1 
   33    40     1 
   33    41     1 
   33    42     1 
   34    37     1 
   34    38     1 
   34    39     1 
   35    37     1 
   35    38     1 
   35    39     1 
   36    43     1 
   36    44     1 
   36    45     1 
   37    40     1 
   37    41     1 
   37    42     1 
   38    40     1 
   38    41     1 
   38    42     1 
   39    46     1 
   39    47     1 
   40    43     1 
   40    44     1 
   40    45     1 
   41    43     1 
   41    44     1 
   41    45     1 
   42    48     1 
   42    49     1 
   43    46     1 
   43    47     1 
   44    46     1 
   44    47     1 
   45    50     1 
   45    51     1 
   45    52     1 
   46    48     1 
   46    49     1 
   47    53     1 
   47    54     1 
   47    55     1 
   48    50     1 
   48    51     1 
   48    52     1 
   49    56     1 
   49    57     1 
   49    58     1 
   50    53     1 
   50    54     1 
   50    55     1 
   51    53     1 
   51    54     1 
   51    55     1 
   52    59     1 
   52    60     1 
   52    61     1 
   53    56     1 
   53    57     1 
   53    58     1 
   54    56     1 
   54    57     1 
   54    58     1 
   55    62     1 
   55    63     1 
   55    64     1 
   56    59     1 
   56    60     1 
   56    61     1 
   57    59     1 
   57    60     1 
   57    61     1 
   58    65     1 
   58    66     1 
   58    67     1 
   59    62     1 
   59    63     1 
   59    64     1 
   60    62     1 
   60    63     1 
   60    64     1 
   61    68     1 
   61    69     1 
   61    70     1 
   62    65     1 
   62    66     1 
   62    67     1 
   63    65     1 
   63    66     1 
   63    67     1 
   64    71     1 
   64    72     1 
   64    73     1 
   65    68     1 
   65    69     1 
   65    70     1 
   66    68     1 
   66    69     1 
   66    70     1 
   68    71     1 
   68    72     1 
   68    73     1 
   69    71     1 
   69    72     1 
   69    73     1 
   74    81     1 
   74    82     1 
   74    83     1 
   75    78     1 
   75    79     1 
   75    80     1 
   76    78     1 
   76    79     1 
   76    80     1 
   77    84     1 
   77    85     1 
   77    86     1 
   78    81     1 
   78    82     1 
   78    83     1 
   79    81     1 
   79    82     1 
   79    83     1 
   80    87     1 
   80    88     1 
   80    89     1 
   81    84     1 
   81    85     1 
   81    86     1 
   82    84     1 
   82    85     1 
   82    86     1 
   83    90     1 
   83    91     1 
   83    92     1 
   84    87     1 
   84    88     1 
   84    89     1 
   85    87     1 
   85    88     1 
   85    89     1 
   86    93     1 
   86    94     1 
   87    90     1 
   87    91     1 
   87    92     1 
   88    90     1 
   88    91     1 
   88    92     1 
   89    95     1 
   89    96     1 
   90    93     1 
   90    94     1 
   91    93     1 
   91    94     1 
   92    97     1 
   92    98     1 
   92    99     1 
   93    95     1 
   93    96     1 
   94   100     1 
   94   101     1 
   94   102     1 
   95    97     1 
   95    98     1 
   95    99     1 
   96   103     1 
   96   104     1 
   96   105     1 
   97   100     1 
   97   101     1 
   97   102     1 
   98   100     1 
   98   101     1 
   98   102     1 
   99   106     1 
   99   107     1 
   99   108     1 
  100   103     1 
  100   104     1 
  100   105     1 
  101   103     1 
  101   104     1 
  101   105     1 
  102   109     1 
  102   110     1 
  102   111     1 
  103   106     1 
  103   107     1 
  103   108     1 
  104   106     1 
  104   107     1 
  104   108     1 
  105   112     1 
  105   113     1 
  105   114     1 
  106   109     1 
  106   110     1 
  106   111     1 
  107   109     1 
  107   110     1 
  107   111     1 
  108   115     1 
  108   116     1 
  108   117     1 
  109   112     1 
  109   113     1 
  109   114     1 
  110   112     1 
  110   113     1 
  110   114     1 
  111   118     1 
  111   119     1 
  111   120     1 
  112   115     1 
  112   116     1 
  112   117     1 
  113   115     1 
  113   116     1 
  113   117     1 
  115   118     1 
  115   119     1 
  115   120     1 
  116   118     1 
  116   119     1 
  116   120     1 

[ angles ]
;  ai    aj    ak funct            c0            c1            c2            c3
    2     1     3     5 
    2     1     4     5 
    2     1     6     5 
    3     1     4     5 
    3     1     6     5 
    4     1     6     5 
    1     4     5     5 
    1     6     7     5 
    6     7     8     5 
    6     7     9     5 
    6     7    10     5 
    8     7     9     5 
    8     7    10     5 
    9     7    10     5 
    7    10    11     5 
    7    10    12     5 
    7    10    18     5 
   11    10    12     5 
   11    10    18     5 
   12    10    18     5 
   10    12    13     5 
   12    13    14     5 
   12    13    15     5 
   14    13    15     5 
   13    15    16     5 
   13    15    17     5 
   13    15    27     5 
   16    15    17     5 
   16    15    27     5 
   17    15    27     5 
   10    18    19     5 
   10    18    20     5 
   10    18    21     5 
   19    18    20     5 
   19    18    21     5 
   20    18    21     5 
   18    21    22     5 
   21    22    23     5 
   21    22    24     5 
   23    22    24     5 
   22    24    25     5 
   22    24    26     5 
   22    24    74     5 
   25    24    26     5 
   25    24    74     5 
   26    24    74     5 
   15    27    28     5 
   15    27    29     5 
   15    27    30     5 
   28    27    29     5 
   28    27    30     5 
   29    27    30     5 
   27    30    31     5 
   27    30    32     5 
   27    30    33     5 
   31    30    32     5 
   31    30    33     5 
   32    30    33     5 
   30    33    34     5 
   30    33    35     5 
   30    33    36     5 
   34    33    35     5 
   34    33    36     5 
   35    33    36     5 
   33    36    37     5 
   33    36    38     5 
   33    36    39     5 
   37    36    38     5 
   37    36    39     5 
   38    36    39     5 
   36    39    40     5 
   36    39    41     5 
   36    39    42     5 
   40    39    41     5 
   40    39    42     5 
   41    39    42     5 
   39    42    43     5 
   39    42    44     5 
   39    42    45     5 
   43    42    44     5 
   43    42    45     5 
   44    42    45     5 
   42    45    46     5 
   42    45    47     5 
   46    45    47     5 
   45    47    48     5 
   45    47    49     5 
   48    47    49     5 
   47    49    50     5 
   47    49    51     5 
   47    49    52     5 
   50    49    51     5 
   50    49    52     5 
   51    49    52     5 
   49    52    53     5 
   49    52    54     5 
   49    52    55     5 
   53    52    54     5 
   53    52    55     5 
   54    52    55     5 
   52    55    56     5 
   52    55    57     5 
   52    55    58     5 
   56    55    57     5 
   56    55    58     5 
   57    55    58     5 
   55    58    59     5 
   55    58    60     5 
   55    58    61     5 
   59    58    60     5 
   59    58    61     5 
   60    58    61     5 
   58    61    62     5 
   58    61    63     5 
   58    61    64     5 
   62    61    63     5 
   62    61    64     5 
   63    61    64     5 
   61    64    65     5 
   61    64    66     5 
   61    64    67     5 
   65    64    66     5 
   65    64    67     5 
   66    64    67     5 
   64    67    68     5 
   64    67    69     5 
   64    67    70     5 
   68    67    69     5 
   68    67    70     5 
   69    67    70     5 
   67    70    71     5 
   67    70    72     5 
   67    70    73     5 
   71    70    72     5 
   71    70    73     5 
   72    70    73     5 
   24    74    75     5 
   24    74    76     5 
   24    74    77     5 
   75    74    76     5 
   75    74    77     5 
   76    74    77     5 
   74    77    78     5 
   74    77    79     5 
   74    77    80     5 
   78    77    79     5 
   78    77    80     5 
   79    77    80     5 
   77    80    81     5 
   77    80    82     5 
   77    80    83     5 
   81    80    82     5 
   81    80    83     5 
   82    80    83     5 
   80    83    84     5 
   80    83    85     5 
   80    83    86     5 
   84    83    85     5 
   84    83    86     5 
   85    83    86     5 
   83    86    87     5 
   83    86    88     5 
   83    86    89     5 
   87    86    88     5 
   87    86    89     5 
   88    86    89     5 
   86    89    90     5 
   86    89    91     5 
   86    89    92     5 
   90    89    91     5 
   90    89    92     5 
   91    89    92     5 
   89    92    93     5 
   89    92    94     5 
   93    92    94     5 
   92    94    95     5 
   92    94    96     5 
   95    94    96     5 
   94    96    97     5 
   94    96    98     5 
   94    96    99     5 
   97    96    98     5 
   97    96    99     5 
   98    96    99     5 
   96    99   100     5 
   96    99   101     5 
   96    99   102     5 
  100    99   101     5 
  100    99   102     5 
  101    99   102     5 
   99   102   103     5 
   99   102   104     5 
   99   102   105     5 
  103   102   104     5 
  103   102   105     5 
  104   102   105     5 
  102   105   106     5 
  102   105   107     5 
  102   105   108     5 
  106   105   107     5 
  106   105   108     5 
  107   105   108     5 
  105   108   109     5 
  105   108   110     5 
  105   108   111     5 
  109   108   110     5 
  109   108   111     5 
  110   108   111     5 
  108   111   112     5 
  108   111   113     5 
  108   111   114     5 
  112   111   113     5 
  112   111   114     5 
  113   111   114     5 
  111   114   115     5 
  111   114   116     5 
  111   114   117     5 
  115   114   116     5 
  115   114   117     5 
  116   114   117     5 
  114   117   118     5 
  114   117   119     5 
  114   117   120     5 
  118   117   119     5 
  118   117   120     5 
  119   117   120     5 

[ dihedrals ]
;  ai    aj    ak    al funct            c0            c1            c2            c3            c4            c5
    2     1     4     5     9 
    3     1     4     5     9 
    6     1     4     5     9 
    2     1     6     7     9 
    3     1     6     7     9 
    4     1     6     7     9 
    1     6     7     8     9 
    1     6     7     9     9 
    1     6     7    10     9 
    6     7    10    11     9 
    6     7    10    12     9 
    6     7    10    18     9 
    8     7    10    11     9 
    8     7    10    12     9 
    8     7    10    18     9 
    9     7    10    11     9 
    9     7    10    12     9 
    9     7    10    18     9 
    7    10    12    13     9 
   11    10    12    13     9 
   18    10    12    13     9 
    7    10    18    19     9 
    7    10    18    20     9 
    7    10    18    21     9 
   11    10    18    19     9 
   11    10    18    20     9 
   11    10    18    21     9 
   12    10    18    19     9 
   12    10    18    20     9 
   12    10    18    21     9 
   10    12    13    14     9 
   10    12    13    15     9 
   12    13    15    16     9 
   12    13    15    17     9 
   12    13    15    27     9 
   14    13    15    16     9 
   14    13    15    17     9 
   14    13    15    27     9 
   13    15    27    28     9 
   13    15    27    29     9 
   13    15    27    30     9 
   16    15    27    28     9 
   16    15    27    29     9 
   16    15    27    30     9 
   17    15    27    28     9 
   17    15    27    29     9 
   17    15    27    30     9 
   10    18    21    22     9 
   19    18    21    22     9 
   20    18    21    22     9 
   18    21    22    23     9 
   18    21    22    24     9 
   21    22    24    25     9 
   21    22    24    26     9 
   21    22    24    74     9 
   23    22    24    25     9 
   23    22    24    26     9 
   23    22    24    74     9 
   22    24    74    75     9 
   22    24    74    76     9 
   22    24    74    77     9 
   25    24    74    75     9 
   25    24    74    76     9 
   25    24    74    77     9 
   26    24    74    75     9 
   26    24    74    76     9 
   26    24    74    77     9 
   15    27    30    31     9 
   15    27    30    32     9 
   15    27    30    33     9 
   28    27    30    31     9 
   28    27    30    32     9 
   28    27    30    33     9 
   29    27    30    31     9 
   29    27    30    32     9 
   29    27    30    33     9 
   27    30    33    34     9 
   27    30    33    35     9 
   27    30    33    36     9 
   31    30    33    34     9 
   31    30    33    35     9 
   31    30    33    36     9 
   32    30    33    34     9 
   32    30    33    35     9 
   32    30    33    36     9 
   30    33    36    37     9 
   30    33    36    38     9 
   30    33    36    39     9 
   34    33    36    37     9 
   34    33    36    38     9 
   34    33    36    39     9 
   35    33    36    37     9 
   35    33    36    38     9 
   35    33    36    39     9 
   33    36    39    40     9 
   33    36    39    41     9 
   33    36    39    42     9 
   37    36    39    40     9 
   37    36    39    41     9 
   37    36    39    42     9 
   38    36    39    40     9 
   38    36    39    41     9 
   38    36    39    42     9 
   36    39    42    43     9 
   36    39    42    44     9 
   36    39    42    45     9 
   40    39    42    43     9 
   40    39    42    44     9 
   40    39    42    45     9 
   41    39    42    43     9 
   41    39    42    44     9 
   41    39    42    45     9 
   39    42    45    46     9 
   39    42    45    47     9 
   43    42    45    46     9 
   43    42    45    47     9 
   44    42    45    46     9 
   44    42    45    47     9 
   42    45    47    48     9 
   42    45    47    49     9 
   46    45    47    48     9 
   46    45    47    49     9 
   45    47    49    50     9 
   45    47    49    51     9 
   45    47    49    52     9 
   48    47    49    50     9 
   48    47    49    51     9 
   48    47    49    52     9 
   47    49    52    53     9 
   47    49    52    54     9 
   47    49    52    55     9 
   50    49    52    53     9 
   50    49    52    54     9 
   50    49    52    55     9 
   51    49    52    53     9 
   51    49    52    54     9 
   51    49    52    55     9 
   49    52    55    56     9 
   49    52    55    57     9 
   49    52    55    58     9 
   53    52    55    56     9 
   53    52    55    57     9 
   53    52    55    58     9 
   54    52    55    56     9 
   54    52    55    57     9 
   54    52    55    58     9 
   52    55    58    59     9 
   52    55    58    60     9 
   52    55    58    61     9 
   56    55    58    59     9 
   56    55    58    60     9 
   56    55    58    61     9 
   57    55    58    59     9 
   57    55    58    60     9 
   57    55    58    61     9 
   55    58    61    62     9 
   55    58    61    63     9 
   55    58    61    64     9 
   59    58    61    62     9 
   59    58    61    63     9 
   59    58    61    64     9 
   60    58    61    62     9 
   60    58    61    63     9 
   60    58    61    64     9 
   58    61    64    65     9 
   58    61    64    66     9 
   58    61    64    67     9 
   62    61    64    65     9 
   62    61    64    66     9 
   62    61    64    67     9 
   63    61    64    65     9 
   63    61    64    66     9 
   63    61    64    67     9 
   61    64    67    68     9 
   61    64    67    69     9 
   61    64    67    70     9 
   65    64    67    68     9 
   65    64    67    69     9 
   65    64    67    70     9 
   66    64    67    68     9 
   66    64    67    69     9 
   66    64    67    70     9 
   64    67    70    71     9 
   64    67    70    72     9 
   64    67    70    73     9 
   68    67    70    71     9 
   68    67    70    72     9 
   68    67    70    73     9 
   69    67    70    71     9 
   69    67    70    72     9 
   69    67    70    73     9 
   24    74    77    78     9 
   24    74    77    79     9 
   24    74    77    80     9 
   75    74    77    78     9 
   75    74    77    79     9 
   75    74    77    80     9 
   76    74    77    78     9 
   76    74    77    79     9 
   76    74    77    80     9 
   74    77    80    81     9 
   74    77    80    82     9 
   74    77    80    83     9 
   78    77    80    81     9 
   78    77    80    82     9 
   78    77    80    83     9 
   79    77    80    81     9 
   79    77    80    82     9 
   79    77    80    83     9 
   77    80    83    84     9 
   77    80    83    85     9 
   77    80    83    86     9 
   81    80    83    84     9 
   81    80    83    85     9 
   81    80    83    86     9 
   82    80    83    84     9 
   82    80    83    85     9 
   82    80    83    86     9 
   80    83    86    87     9 
   80    83    86    88     9 
   80    83    86    89     9 
   84    83    86    87     9 
   84    83    86    88     9 
   84    83    86    89     9 
   85    83    86    87     9 
   85    83    86    88     9 
   85    83    86    89     9 
   83    86    89    90     9 
   83    86    89    91     9 
   83    86    89    92     9 
   87    86    89    90     9 
   87    86    89    91     9 
   87    86    89    92     9 
   88    86    89    90     9 
   88    86    89    91     9 
   88    86    89    92     9 
   86    89    92    93     9 
   86    89    92    94     9 
   90    89    92    93     9 
   90    89    92    94     9 
   91    89    92    93     9 
   91    89    92    94     9 
   89    92    94    95     9 
   89    92    94    96     9 
   93    92    94    95     9 
   93    92    94    96     9 
   92    94    96    97     9 
   92    94    96    98     9 
   92    94    96    99     9 
   95    94    96    97     9 
   95    94    96    98     9 
   95    94    96    99     9 
   94    96    99   100     9 
   94    96    99   101     9 
   94    96    99   102     9 
   97    96    99   100     9 
   97    96    99   101     9 
   97    96    99   102     9 
   98    96    99   100     9 
   98    96    99   101     9 
   98    96    99   102     9 
   96    99   102   103     9 
   96    99   102   104     9 
   96    99   102   105     9 
  100    99   102   103     9 
  100    99   102   104     9 
  100    99   102   105     9 
  101    99   102   103     9 
  101    99   102   104     9 
  101    99   102   105     9 
   99   102   105   106     9 
   99   102   105   107     9 
   99   102   105   108     9 
  103   102   105   106     9 
  103   102   105   107     9 
  103   102   105   108     9 
  104   102   105   106     9 
  104   102   105   107     9 
  104   102   105   108     9 
  102   105   108   109     9 
  102   105   108   110     9 
  102   105   108   111     9 
  106   105   108   109     9 
  106   105   108   110     9 
  106   105   108   111     9 
  107   105   108   109     9 
  107   105   108   110     9 
  107   105   108   111     9 
  105   108   111   112     9 
  105   108   111   113     9 
  105   108   111   114     9 
  109   108   111   112     9 
  109   108   111   113     9 
  109   108   111   114     9 
  110   108   111   112     9 
  110   108   111   113     9 
  110   108   111   114     9 
  108   111   114   115     9 
  108   111   114   116     9 
  108   111   114   117     9 
  112   111   114   115     9 
  112   111   114   116     9 
  112   111   114   117     9 
  113   111   114   115     9 
  113   111   114   116     9 
  113   111   114   117     9 
  111   114   117   118     9 
  111   114   117   119     9 
  111   114   117   120     9 
  115   114   117   118     9 
  115   114   117   119     9 
  115   114   117   120     9 
  116   114   117   118     9 
  116   114   117   119     9 
  116   114   117   120     9 

[ dihedrals ]
;  ai    aj    ak    al funct            c0            c1            c2            c3
   13    12    15    14     2 
   22    21    24    23     2 

; Include Position restraint file
#ifdef POSRES
#include "DOPA_posre.itp"
#endif

