;
;	File '../cg2at-ccd2md/database/fragments/martini_3-1_new_lipidome_charmm36/non_protein/DOEE/DOEE.top' was generated
;	By user: mztrxr (16752)
;	On host: srgwzze.scrtp.warwick.ac.uk
;	At date: Thu Jul 16 13:28:31 2026
;
;	This is a standalone topology file
;
;	Created by:
;	              :-) GROMACS - gmx pdb2gmx, 2025.4-conda_forge (-:
;	
;	Executable:   /storage/chem/lfsmgr/SRG/mambaforge/envs/gmx2025.4/bin.AVX2_256/gmx
;	Data prefix:  /storage/chem/lfsmgr/SRG/mambaforge/envs/gmx2025.4
;	Working dir:  /home/lifesci/mztrxr/Documents/CCD2MD/CCD2AT/add_molecules
;	Command line:
;	  gmx pdb2gmx -ff charmm36-ccd2md -water none -f ../../charmm-gui-lipids-sterols-detergents/doee.pdb -i ../cg2at-ccd2md/database/fragments/martini_3-1_new_lipidome_charmm36/non_protein/DOEE/DOEE_posre.itp -p ../cg2at-ccd2md/database/fragments/martini_3-1_new_lipidome_charmm36/non_protein/DOEE/DOEE.top
;	Force field was read from current directory or a relative path - path added.
;

; Include forcefield parameters
#include "./charmm36-ccd2md.ff/forcefield.itp"

[ moleculetype ]
; Name            nrexcl
Other               3

[ atoms ]
;   nr       type  resnr residue  atom   cgnr     charge       mass  typeB    chargeB      massB
; residue   1 DOEE rtp DOEE q  0.0
     1       NH3L      1   DOEE      N      1       -0.3     14.007
     2        HCL      1   DOEE    HN1      1       0.33      1.008
     3        HCL      1   DOEE    HN2      1       0.33      1.008
     4        HCL      1   DOEE    HN3      1       0.33      1.008
     5       CTL2      1   DOEE    C12      1       0.13     12.011
     6       HAL2      1   DOEE   H12A      1       0.09      1.008
     7       HAL2      1   DOEE   H12B      1       0.09      1.008
     8       CTL2      1   DOEE    C11      2      -0.08     12.011
     9       HAL2      1   DOEE   H11A      2       0.09      1.008
    10       HAL2      1   DOEE   H11B      2       0.09      1.008
    11         PL      1   DOEE      P      2        1.5     30.974
    12        O2L      1   DOEE    O13      2      -0.78    15.9994
    13        O2L      1   DOEE    O14      2      -0.78    15.9994
    14       OSLP      1   DOEE    O11      2      -0.57    15.9994
    15       OSLP      1   DOEE    O12      2      -0.57    15.9994
    16       CTL2      1   DOEE     C1      2      -0.08     12.011
    17       HAL2      1   DOEE     HA      2       0.09      1.008
    18       HAL2      1   DOEE     HB      2       0.09      1.008
    19       CTL1      1   DOEE     C2      3       0.13     12.011
    20       HAL1      1   DOEE     HS      3       0.01      1.008
    21      OG301      1   DOEE    O21      3      -0.56    15.9994
    22       CTL2      1   DOEE    C21      3        0.4     12.011
    23       HAL2      1   DOEE    H1R      3       0.01      1.008
    24       HAL2      1   DOEE    H1S      3       0.01      1.008
    25       CTL2      1   DOEE    C22      3      -0.18     12.011
    26       HAL2      1   DOEE    H2R      3       0.09      1.008
    27       HAL2      1   DOEE    H2S      3       0.09      1.008
    28       CTL2      1   DOEE     C3      4       0.08     12.011
    29       HAL2      1   DOEE     HX      4       0.02      1.008
    30       HAL2      1   DOEE     HY      4       0.02      1.008
    31      OG301      1   DOEE    O31      4      -0.56    15.9994
    32       CTL2      1   DOEE    C31      4        0.4     12.011
    33       HAL2      1   DOEE    H1X      4       0.02      1.008
    34       HAL2      1   DOEE    H1Y      4       0.02      1.008
    35       CTL2      1   DOEE    C32      4      -0.18     12.011
    36       HAL2      1   DOEE    H2X      4       0.09      1.008
    37       HAL2      1   DOEE    H2Y      4       0.09      1.008
    38       CTL2      1   DOEE    C23      5      -0.18     12.011
    39       HAL2      1   DOEE    H3R      5       0.09      1.008
    40       HAL2      1   DOEE    H3S      5       0.09      1.008
    41       CTL2      1   DOEE    C24      6      -0.18     12.011
    42       HAL2      1   DOEE    H4R      6       0.09      1.008
    43       HAL2      1   DOEE    H4S      6       0.09      1.008
    44       CTL2      1   DOEE    C25      7      -0.18     12.011
    45       HAL2      1   DOEE    H5R      7       0.09      1.008
    46       HAL2      1   DOEE    H5S      7       0.09      1.008
    47       CTL2      1   DOEE    C26      8      -0.18     12.011
    48       HAL2      1   DOEE    H6R      8       0.09      1.008
    49       HAL2      1   DOEE    H6S      8       0.09      1.008
    50       CTL2      1   DOEE    C27      9      -0.18     12.011
    51       HAL2      1   DOEE    H7R      9       0.09      1.008
    52       HAL2      1   DOEE    H7S      9       0.09      1.008
    53       CTL2      1   DOEE    C28     10      -0.18     12.011
    54       HAL2      1   DOEE    H8R     10       0.09      1.008
    55       HAL2      1   DOEE    H8S     10       0.09      1.008
    56       CEL1      1   DOEE    C29     11      -0.15     12.011
    57       HEL1      1   DOEE    H9R     11       0.15      1.008
    58       CEL1      1   DOEE   C210     12      -0.15     12.011
    59       HEL1      1   DOEE   H10R     12       0.15      1.008
    60       CTL2      1   DOEE   C211     13      -0.18     12.011
    61       HAL2      1   DOEE   H11R     13       0.09      1.008
    62       HAL2      1   DOEE   H11S     13       0.09      1.008
    63       CTL2      1   DOEE   C212     14      -0.18     12.011
    64       HAL2      1   DOEE   H12R     14       0.09      1.008
    65       HAL2      1   DOEE   H12S     14       0.09      1.008
    66       CTL2      1   DOEE   C213     15      -0.18     12.011
    67       HAL2      1   DOEE   H13R     15       0.09      1.008
    68       HAL2      1   DOEE   H13S     15       0.09      1.008
    69       CTL2      1   DOEE   C214     16      -0.18     12.011
    70       HAL2      1   DOEE   H14R     16       0.09      1.008
    71       HAL2      1   DOEE   H14S     16       0.09      1.008
    72       CTL2      1   DOEE   C215     17      -0.18     12.011
    73       HAL2      1   DOEE   H15R     17       0.09      1.008
    74       HAL2      1   DOEE   H15S     17       0.09      1.008
    75       CTL2      1   DOEE   C216     18      -0.18     12.011
    76       HAL2      1   DOEE   H16R     18       0.09      1.008
    77       HAL2      1   DOEE   H16S     18       0.09      1.008
    78       CTL2      1   DOEE   C217     19      -0.18     12.011
    79       HAL2      1   DOEE   H17R     19       0.09      1.008
    80       HAL2      1   DOEE   H17S     19       0.09      1.008
    81       CTL3      1   DOEE   C218     20      -0.27     12.011
    82       HAL3      1   DOEE   H18R     20       0.09      1.008
    83       HAL3      1   DOEE   H18S     20       0.09      1.008
    84       HAL3      1   DOEE   H18T     20       0.09      1.008
    85       CTL2      1   DOEE    C33     21      -0.18     12.011
    86       HAL2      1   DOEE    H3X     21       0.09      1.008
    87       HAL2      1   DOEE    H3Y     21       0.09      1.008
    88       CTL2      1   DOEE    C34     22      -0.18     12.011
    89       HAL2      1   DOEE    H4X     22       0.09      1.008
    90       HAL2      1   DOEE    H4Y     22       0.09      1.008
    91       CTL2      1   DOEE    C35     23      -0.18     12.011
    92       HAL2      1   DOEE    H5X     23       0.09      1.008
    93       HAL2      1   DOEE    H5Y     23       0.09      1.008
    94       CTL2      1   DOEE    C36     24      -0.18     12.011
    95       HAL2      1   DOEE    H6X     24       0.09      1.008
    96       HAL2      1   DOEE    H6Y     24       0.09      1.008
    97       CTL2      1   DOEE    C37     25      -0.18     12.011
    98       HAL2      1   DOEE    H7X     25       0.09      1.008
    99       HAL2      1   DOEE    H7Y     25       0.09      1.008
   100       CTL2      1   DOEE    C38     26      -0.18     12.011
   101       HAL2      1   DOEE    H8X     26       0.09      1.008
   102       HAL2      1   DOEE    H8Y     26       0.09      1.008
   103       CEL1      1   DOEE    C39     27      -0.15     12.011
   104       HEL1      1   DOEE    H9X     27       0.15      1.008
   105       CEL1      1   DOEE   C310     28      -0.15     12.011
   106       HEL1      1   DOEE   H10X     28       0.15      1.008
   107       CTL2      1   DOEE   C311     29      -0.18     12.011
   108       HAL2      1   DOEE   H11X     29       0.09      1.008
   109       HAL2      1   DOEE   H11Y     29       0.09      1.008
   110       CTL2      1   DOEE   C312     30      -0.18     12.011
   111       HAL2      1   DOEE   H12X     30       0.09      1.008
   112       HAL2      1   DOEE   H12Y     30       0.09      1.008
   113       CTL2      1   DOEE   C313     31      -0.18     12.011
   114       HAL2      1   DOEE   H13X     31       0.09      1.008
   115       HAL2      1   DOEE   H13Y     31       0.09      1.008
   116       CTL2      1   DOEE   C314     32      -0.18     12.011
   117       HAL2      1   DOEE   H14X     32       0.09      1.008
   118       HAL2      1   DOEE   H14Y     32       0.09      1.008
   119       CTL2      1   DOEE   C315     33      -0.18     12.011
   120       HAL2      1   DOEE   H15X     33       0.09      1.008
   121       HAL2      1   DOEE   H15Y     33       0.09      1.008
   122       CTL2      1   DOEE   C316     34      -0.18     12.011
   123       HAL2      1   DOEE   H16X     34       0.09      1.008
   124       HAL2      1   DOEE   H16Y     34       0.09      1.008
   125       CTL2      1   DOEE   C317     35      -0.18     12.011
   126       HAL2      1   DOEE   H17X     35       0.09      1.008
   127       HAL2      1   DOEE   H17Y     35       0.09      1.008
   128       CTL3      1   DOEE   C318     36      -0.27     12.011
   129       HAL3      1   DOEE   H18X     36       0.09      1.008
   130       HAL3      1   DOEE   H18Y     36       0.09      1.008
   131       HAL3      1   DOEE   H18Z     36       0.09      1.008   ; qtot 0

[ bonds ]
;  ai    aj funct            c0            c1            c2            c3
    1     2     1 
    1     3     1 
    1     4     1 
    1     5     1 
    5     6     1 
    5     7     1 
    5     8     1 
    8     9     1 
    8    10     1 
    8    15     1 
   11    12     1 
   11    13     1 
   11    14     1 
   11    15     1 
   14    16     1 
   16    17     1 
   16    18     1 
   16    19     1 
   19    20     1 
   19    21     1 
   19    28     1 
   21    22     1 
   22    23     1 
   22    24     1 
   22    25     1 
   25    26     1 
   25    27     1 
   25    38     1 
   28    29     1 
   28    30     1 
   28    31     1 
   31    32     1 
   32    33     1 
   32    34     1 
   32    35     1 
   35    36     1 
   35    37     1 
   35    85     1 
   38    39     1 
   38    40     1 
   38    41     1 
   41    42     1 
   41    43     1 
   41    44     1 
   44    45     1 
   44    46     1 
   44    47     1 
   47    48     1 
   47    49     1 
   47    50     1 
   50    51     1 
   50    52     1 
   50    53     1 
   53    54     1 
   53    55     1 
   53    56     1 
   56    57     1 
   56    58     1 
   58    59     1 
   58    60     1 
   60    61     1 
   60    62     1 
   60    63     1 
   63    64     1 
   63    65     1 
   63    66     1 
   66    67     1 
   66    68     1 
   66    69     1 
   69    70     1 
   69    71     1 
   69    72     1 
   72    73     1 
   72    74     1 
   72    75     1 
   75    76     1 
   75    77     1 
   75    78     1 
   78    79     1 
   78    80     1 
   78    81     1 
   81    82     1 
   81    83     1 
   81    84     1 
   85    86     1 
   85    87     1 
   85    88     1 
   88    89     1 
   88    90     1 
   88    91     1 
   91    92     1 
   91    93     1 
   91    94     1 
   94    95     1 
   94    96     1 
   94    97     1 
   97    98     1 
   97    99     1 
   97   100     1 
  100   101     1 
  100   102     1 
  100   103     1 
  103   104     1 
  103   105     1 
  105   106     1 
  105   107     1 
  107   108     1 
  107   109     1 
  107   110     1 
  110   111     1 
  110   112     1 
  110   113     1 
  113   114     1 
  113   115     1 
  113   116     1 
  116   117     1 
  116   118     1 
  116   119     1 
  119   120     1 
  119   121     1 
  119   122     1 
  122   123     1 
  122   124     1 
  122   125     1 
  125   126     1 
  125   127     1 
  125   128     1 
  128   129     1 
  128   130     1 
  128   131     1 

[ pairs ]
;  ai    aj funct            c0            c1            c2            c3
    1     9     1 
    1    10     1 
    1    15     1 
    2     6     1 
    2     7     1 
    2     8     1 
    3     6     1 
    3     7     1 
    3     8     1 
    4     6     1 
    4     7     1 
    4     8     1 
    5    11     1 
    6     9     1 
    6    10     1 
    6    15     1 
    7     9     1 
    7    10     1 
    7    15     1 
    8    12     1 
    8    13     1 
    8    14     1 
    9    11     1 
   10    11     1 
   11    17     1 
   11    18     1 
   11    19     1 
   12    16     1 
   13    16     1 
   14    20     1 
   14    21     1 
   14    28     1 
   15    16     1 
   16    22     1 
   16    29     1 
   16    30     1 
   16    31     1 
   17    20     1 
   17    21     1 
   17    28     1 
   18    20     1 
   18    21     1 
   18    28     1 
   19    23     1 
   19    24     1 
   19    25     1 
   19    32     1 
   20    22     1 
   20    29     1 
   20    30     1 
   20    31     1 
   21    26     1 
   21    27     1 
   21    29     1 
   21    30     1 
   21    31     1 
   21    38     1 
   22    28     1 
   22    39     1 
   22    40     1 
   22    41     1 
   23    26     1 
   23    27     1 
   23    38     1 
   24    26     1 
   24    27     1 
   24    38     1 
   25    42     1 
   25    43     1 
   25    44     1 
   26    39     1 
   26    40     1 
   26    41     1 
   27    39     1 
   27    40     1 
   27    41     1 
   28    33     1 
   28    34     1 
   28    35     1 
   29    32     1 
   30    32     1 
   31    36     1 
   31    37     1 
   31    85     1 
   32    86     1 
   32    87     1 
   32    88     1 
   33    36     1 
   33    37     1 
   33    85     1 
   34    36     1 
   34    37     1 
   34    85     1 
   35    89     1 
   35    90     1 
   35    91     1 
   36    86     1 
   36    87     1 
   36    88     1 
   37    86     1 
   37    87     1 
   37    88     1 
   38    45     1 
   38    46     1 
   38    47     1 
   39    42     1 
   39    43     1 
   39    44     1 
   40    42     1 
   40    43     1 
   40    44     1 
   41    48     1 
   41    49     1 
   41    50     1 
   42    45     1 
   42    46     1 
   42    47     1 
   43    45     1 
   43    46     1 
   43    47     1 
   44    51     1 
   44    52     1 
   44    53     1 
   45    48     1 
   45    49     1 
   45    50     1 
   46    48     1 
   46    49     1 
   46    50     1 
   47    54     1 
   47    55     1 
   47    56     1 
   48    51     1 
   48    52     1 
   48    53     1 
   49    51     1 
   49    52     1 
   49    53     1 
   50    57     1 
   50    58     1 
   51    54     1 
   51    55     1 
   51    56     1 
   52    54     1 
   52    55     1 
   52    56     1 
   53    59     1 
   53    60     1 
   54    57     1 
   54    58     1 
   55    57     1 
   55    58     1 
   56    61     1 
   56    62     1 
   56    63     1 
   57    59     1 
   57    60     1 
   58    64     1 
   58    65     1 
   58    66     1 
   59    61     1 
   59    62     1 
   59    63     1 
   60    67     1 
   60    68     1 
   60    69     1 
   61    64     1 
   61    65     1 
   61    66     1 
   62    64     1 
   62    65     1 
   62    66     1 
   63    70     1 
   63    71     1 
   63    72     1 
   64    67     1 
   64    68     1 
   64    69     1 
   65    67     1 
   65    68     1 
   65    69     1 
   66    73     1 
   66    74     1 
   66    75     1 
   67    70     1 
   67    71     1 
   67    72     1 
   68    70     1 
   68    71     1 
   68    72     1 
   69    76     1 
   69    77     1 
   69    78     1 
   70    73     1 
   70    74     1 
   70    75     1 
   71    73     1 
   71    74     1 
   71    75     1 
   72    79     1 
   72    80     1 
   72    81     1 
   73    76     1 
   73    77     1 
   73    78     1 
   74    76     1 
   74    77     1 
   74    78     1 
   75    82     1 
   75    83     1 
   75    84     1 
   76    79     1 
   76    80     1 
   76    81     1 
   77    79     1 
   77    80     1 
   77    81     1 
   79    82     1 
   79    83     1 
   79    84     1 
   80    82     1 
   80    83     1 
   80    84     1 
   85    92     1 
   85    93     1 
   85    94     1 
   86    89     1 
   86    90     1 
   86    91     1 
   87    89     1 
   87    90     1 
   87    91     1 
   88    95     1 
   88    96     1 
   88    97     1 
   89    92     1 
   89    93     1 
   89    94     1 
   90    92     1 
   90    93     1 
   90    94     1 
   91    98     1 
   91    99     1 
   91   100     1 
   92    95     1 
   92    96     1 
   92    97     1 
   93    95     1 
   93    96     1 
   93    97     1 
   94   101     1 
   94   102     1 
   94   103     1 
   95    98     1 
   95    99     1 
   95   100     1 
   96    98     1 
   96    99     1 
   96   100     1 
   97   104     1 
   97   105     1 
   98   101     1 
   98   102     1 
   98   103     1 
   99   101     1 
   99   102     1 
   99   103     1 
  100   106     1 
  100   107     1 
  101   104     1 
  101   105     1 
  102   104     1 
  102   105     1 
  103   108     1 
  103   109     1 
  103   110     1 
  104   106     1 
  104   107     1 
  105   111     1 
  105   112     1 
  105   113     1 
  106   108     1 
  106   109     1 
  106   110     1 
  107   114     1 
  107   115     1 
  107   116     1 
  108   111     1 
  108   112     1 
  108   113     1 
  109   111     1 
  109   112     1 
  109   113     1 
  110   117     1 
  110   118     1 
  110   119     1 
  111   114     1 
  111   115     1 
  111   116     1 
  112   114     1 
  112   115     1 
  112   116     1 
  113   120     1 
  113   121     1 
  113   122     1 
  114   117     1 
  114   118     1 
  114   119     1 
  115   117     1 
  115   118     1 
  115   119     1 
  116   123     1 
  116   124     1 
  116   125     1 
  117   120     1 
  117   121     1 
  117   122     1 
  118   120     1 
  118   121     1 
  118   122     1 
  119   126     1 
  119   127     1 
  119   128     1 
  120   123     1 
  120   124     1 
  120   125     1 
  121   123     1 
  121   124     1 
  121   125     1 
  122   129     1 
  122   130     1 
  122   131     1 
  123   126     1 
  123   127     1 
  123   128     1 
  124   126     1 
  124   127     1 
  124   128     1 
  126   129     1 
  126   130     1 
  126   131     1 
  127   129     1 
  127   130     1 
  127   131     1 

[ angles ]
;  ai    aj    ak funct            c0            c1            c2            c3
    2     1     3     5 
    2     1     4     5 
    2     1     5     5 
    3     1     4     5 
    3     1     5     5 
    4     1     5     5 
    1     5     6     5 
    1     5     7     5 
    1     5     8     5 
    6     5     7     5 
    6     5     8     5 
    7     5     8     5 
    5     8     9     5 
    5     8    10     5 
    5     8    15     5 
    9     8    10     5 
    9     8    15     5 
   10     8    15     5 
   12    11    13     5 
   12    11    14     5 
   12    11    15     5 
   13    11    14     5 
   13    11    15     5 
   14    11    15     5 
   11    14    16     5 
    8    15    11     5 
   14    16    17     5 
   14    16    18     5 
   14    16    19     5 
   17    16    18     5 
   17    16    19     5 
   18    16    19     5 
   16    19    20     5 
   16    19    21     5 
   16    19    28     5 
   20    19    21     5 
   20    19    28     5 
   21    19    28     5 
   19    21    22     5 
   21    22    23     5 
   21    22    24     5 
   21    22    25     5 
   23    22    24     5 
   23    22    25     5 
   24    22    25     5 
   22    25    26     5 
   22    25    27     5 
   22    25    38     5 
   26    25    27     5 
   26    25    38     5 
   27    25    38     5 
   19    28    29     5 
   19    28    30     5 
   19    28    31     5 
   29    28    30     5 
   29    28    31     5 
   30    28    31     5 
   28    31    32     5 
   31    32    33     5 
   31    32    34     5 
   31    32    35     5 
   33    32    34     5 
   33    32    35     5 
   34    32    35     5 
   32    35    36     5 
   32    35    37     5 
   32    35    85     5 
   36    35    37     5 
   36    35    85     5 
   37    35    85     5 
   25    38    39     5 
   25    38    40     5 
   25    38    41     5 
   39    38    40     5 
   39    38    41     5 
   40    38    41     5 
   38    41    42     5 
   38    41    43     5 
   38    41    44     5 
   42    41    43     5 
   42    41    44     5 
   43    41    44     5 
   41    44    45     5 
   41    44    46     5 
   41    44    47     5 
   45    44    46     5 
   45    44    47     5 
   46    44    47     5 
   44    47    48     5 
   44    47    49     5 
   44    47    50     5 
   48    47    49     5 
   48    47    50     5 
   49    47    50     5 
   47    50    51     5 
   47    50    52     5 
   47    50    53     5 
   51    50    52     5 
   51    50    53     5 
   52    50    53     5 
   50    53    54     5 
   50    53    55     5 
   50    53    56     5 
   54    53    55     5 
   54    53    56     5 
   55    53    56     5 
   53    56    57     5 
   53    56    58     5 
   57    56    58     5 
   56    58    59     5 
   56    58    60     5 
   59    58    60     5 
   58    60    61     5 
   58    60    62     5 
   58    60    63     5 
   61    60    62     5 
   61    60    63     5 
   62    60    63     5 
   60    63    64     5 
   60    63    65     5 
   60    63    66     5 
   64    63    65     5 
   64    63    66     5 
   65    63    66     5 
   63    66    67     5 
   63    66    68     5 
   63    66    69     5 
   67    66    68     5 
   67    66    69     5 
   68    66    69     5 
   66    69    70     5 
   66    69    71     5 
   66    69    72     5 
   70    69    71     5 
   70    69    72     5 
   71    69    72     5 
   69    72    73     5 
   69    72    74     5 
   69    72    75     5 
   73    72    74     5 
   73    72    75     5 
   74    72    75     5 
   72    75    76     5 
   72    75    77     5 
   72    75    78     5 
   76    75    77     5 
   76    75    78     5 
   77    75    78     5 
   75    78    79     5 
   75    78    80     5 
   75    78    81     5 
   79    78    80     5 
   79    78    81     5 
   80    78    81     5 
   78    81    82     5 
   78    81    83     5 
   78    81    84     5 
   82    81    83     5 
   82    81    84     5 
   83    81    84     5 
   35    85    86     5 
   35    85    87     5 
   35    85    88     5 
   86    85    87     5 
   86    85    88     5 
   87    85    88     5 
   85    88    89     5 
   85    88    90     5 
   85    88    91     5 
   89    88    90     5 
   89    88    91     5 
   90    88    91     5 
   88    91    92     5 
   88    91    93     5 
   88    91    94     5 
   92    91    93     5 
   92    91    94     5 
   93    91    94     5 
   91    94    95     5 
   91    94    96     5 
   91    94    97     5 
   95    94    96     5 
   95    94    97     5 
   96    94    97     5 
   94    97    98     5 
   94    97    99     5 
   94    97   100     5 
   98    97    99     5 
   98    97   100     5 
   99    97   100     5 
   97   100   101     5 
   97   100   102     5 
   97   100   103     5 
  101   100   102     5 
  101   100   103     5 
  102   100   103     5 
  100   103   104     5 
  100   103   105     5 
  104   103   105     5 
  103   105   106     5 
  103   105   107     5 
  106   105   107     5 
  105   107   108     5 
  105   107   109     5 
  105   107   110     5 
  108   107   109     5 
  108   107   110     5 
  109   107   110     5 
  107   110   111     5 
  107   110   112     5 
  107   110   113     5 
  111   110   112     5 
  111   110   113     5 
  112   110   113     5 
  110   113   114     5 
  110   113   115     5 
  110   113   116     5 
  114   113   115     5 
  114   113   116     5 
  115   113   116     5 
  113   116   117     5 
  113   116   118     5 
  113   116   119     5 
  117   116   118     5 
  117   116   119     5 
  118   116   119     5 
  116   119   120     5 
  116   119   121     5 
  116   119   122     5 
  120   119   121     5 
  120   119   122     5 
  121   119   122     5 
  119   122   123     5 
  119   122   124     5 
  119   122   125     5 
  123   122   124     5 
  123   122   125     5 
  124   122   125     5 
  122   125   126     5 
  122   125   127     5 
  122   125   128     5 
  126   125   127     5 
  126   125   128     5 
  127   125   128     5 
  125   128   129     5 
  125   128   130     5 
  125   128   131     5 
  129   128   130     5 
  129   128   131     5 
  130   128   131     5 

[ dihedrals ]
;  ai    aj    ak    al funct            c0            c1            c2            c3            c4            c5
    2     1     5     6     9 
    2     1     5     7     9 
    2     1     5     8     9 
    3     1     5     6     9 
    3     1     5     7     9 
    3     1     5     8     9 
    4     1     5     6     9 
    4     1     5     7     9 
    4     1     5     8     9 
    1     5     8     9     9 
    1     5     8    10     9 
    1     5     8    15     9 
    6     5     8     9     9 
    6     5     8    10     9 
    6     5     8    15     9 
    7     5     8     9     9 
    7     5     8    10     9 
    7     5     8    15     9 
    5     8    15    11     9 
    9     8    15    11     9 
   10     8    15    11     9 
   12    11    14    16     9 
   13    11    14    16     9 
   15    11    14    16     9 
   12    11    15     8     9 
   13    11    15     8     9 
   14    11    15     8     9 
   11    14    16    17     9 
   11    14    16    18     9 
   11    14    16    19     9 
   14    16    19    20     9 
   14    16    19    21     9 
   14    16    19    28     9 
   17    16    19    20     9 
   17    16    19    21     9 
   17    16    19    28     9 
   18    16    19    20     9 
   18    16    19    21     9 
   18    16    19    28     9 
   16    19    21    22     9 
   20    19    21    22     9 
   28    19    21    22     9 
   16    19    28    29     9 
   16    19    28    30     9 
   16    19    28    31     9 
   20    19    28    29     9 
   20    19    28    30     9 
   20    19    28    31     9 
   21    19    28    29     9 
   21    19    28    30     9 
   21    19    28    31     9 
   19    21    22    23     9 
   19    21    22    24     9 
   19    21    22    25     9 
   21    22    25    26     9 
   21    22    25    27     9 
   21    22    25    38     9 
   23    22    25    26     9 
   23    22    25    27     9 
   23    22    25    38     9 
   24    22    25    26     9 
   24    22    25    27     9 
   24    22    25    38     9 
   22    25    38    39     9 
   22    25    38    40     9 
   22    25    38    41     9 
   26    25    38    39     9 
   26    25    38    40     9 
   26    25    38    41     9 
   27    25    38    39     9 
   27    25    38    40     9 
   27    25    38    41     9 
   19    28    31    32     9 
   29    28    31    32     9 
   30    28    31    32     9 
   28    31    32    33     9 
   28    31    32    34     9 
   28    31    32    35     9 
   31    32    35    36     9 
   31    32    35    37     9 
   31    32    35    85     9 
   33    32    35    36     9 
   33    32    35    37     9 
   33    32    35    85     9 
   34    32    35    36     9 
   34    32    35    37     9 
   34    32    35    85     9 
   32    35    85    86     9 
   32    35    85    87     9 
   32    35    85    88     9 
   36    35    85    86     9 
   36    35    85    87     9 
   36    35    85    88     9 
   37    35    85    86     9 
   37    35    85    87     9 
   37    35    85    88     9 
   25    38    41    42     9 
   25    38    41    43     9 
   25    38    41    44     9 
   39    38    41    42     9 
   39    38    41    43     9 
   39    38    41    44     9 
   40    38    41    42     9 
   40    38    41    43     9 
   40    38    41    44     9 
   38    41    44    45     9 
   38    41    44    46     9 
   38    41    44    47     9 
   42    41    44    45     9 
   42    41    44    46     9 
   42    41    44    47     9 
   43    41    44    45     9 
   43    41    44    46     9 
   43    41    44    47     9 
   41    44    47    48     9 
   41    44    47    49     9 
   41    44    47    50     9 
   45    44    47    48     9 
   45    44    47    49     9 
   45    44    47    50     9 
   46    44    47    48     9 
   46    44    47    49     9 
   46    44    47    50     9 
   44    47    50    51     9 
   44    47    50    52     9 
   44    47    50    53     9 
   48    47    50    51     9 
   48    47    50    52     9 
   48    47    50    53     9 
   49    47    50    51     9 
   49    47    50    52     9 
   49    47    50    53     9 
   47    50    53    54     9 
   47    50    53    55     9 
   47    50    53    56     9 
   51    50    53    54     9 
   51    50    53    55     9 
   51    50    53    56     9 
   52    50    53    54     9 
   52    50    53    55     9 
   52    50    53    56     9 
   50    53    56    57     9 
   50    53    56    58     9 
   54    53    56    57     9 
   54    53    56    58     9 
   55    53    56    57     9 
   55    53    56    58     9 
   53    56    58    59     9 
   53    56    58    60     9 
   57    56    58    59     9 
   57    56    58    60     9 
   56    58    60    61     9 
   56    58    60    62     9 
   56    58    60    63     9 
   59    58    60    61     9 
   59    58    60    62     9 
   59    58    60    63     9 
   58    60    63    64     9 
   58    60    63    65     9 
   58    60    63    66     9 
   61    60    63    64     9 
   61    60    63    65     9 
   61    60    63    66     9 
   62    60    63    64     9 
   62    60    63    65     9 
   62    60    63    66     9 
   60    63    66    67     9 
   60    63    66    68     9 
   60    63    66    69     9 
   64    63    66    67     9 
   64    63    66    68     9 
   64    63    66    69     9 
   65    63    66    67     9 
   65    63    66    68     9 
   65    63    66    69     9 
   63    66    69    70     9 
   63    66    69    71     9 
   63    66    69    72     9 
   67    66    69    70     9 
   67    66    69    71     9 
   67    66    69    72     9 
   68    66    69    70     9 
   68    66    69    71     9 
   68    66    69    72     9 
   66    69    72    73     9 
   66    69    72    74     9 
   66    69    72    75     9 
   70    69    72    73     9 
   70    69    72    74     9 
   70    69    72    75     9 
   71    69    72    73     9 
   71    69    72    74     9 
   71    69    72    75     9 
   69    72    75    76     9 
   69    72    75    77     9 
   69    72    75    78     9 
   73    72    75    76     9 
   73    72    75    77     9 
   73    72    75    78     9 
   74    72    75    76     9 
   74    72    75    77     9 
   74    72    75    78     9 
   72    75    78    79     9 
   72    75    78    80     9 
   72    75    78    81     9 
   76    75    78    79     9 
   76    75    78    80     9 
   76    75    78    81     9 
   77    75    78    79     9 
   77    75    78    80     9 
   77    75    78    81     9 
   75    78    81    82     9 
   75    78    81    83     9 
   75    78    81    84     9 
   79    78    81    82     9 
   79    78    81    83     9 
   79    78    81    84     9 
   80    78    81    82     9 
   80    78    81    83     9 
   80    78    81    84     9 
   35    85    88    89     9 
   35    85    88    90     9 
   35    85    88    91     9 
   86    85    88    89     9 
   86    85    88    90     9 
   86    85    88    91     9 
   87    85    88    89     9 
   87    85    88    90     9 
   87    85    88    91     9 
   85    88    91    92     9 
   85    88    91    93     9 
   85    88    91    94     9 
   89    88    91    92     9 
   89    88    91    93     9 
   89    88    91    94     9 
   90    88    91    92     9 
   90    88    91    93     9 
   90    88    91    94     9 
   88    91    94    95     9 
   88    91    94    96     9 
   88    91    94    97     9 
   92    91    94    95     9 
   92    91    94    96     9 
   92    91    94    97     9 
   93    91    94    95     9 
   93    91    94    96     9 
   93    91    94    97     9 
   91    94    97    98     9 
   91    94    97    99     9 
   91    94    97   100     9 
   95    94    97    98     9 
   95    94    97    99     9 
   95    94    97   100     9 
   96    94    97    98     9 
   96    94    97    99     9 
   96    94    97   100     9 
   94    97   100   101     9 
   94    97   100   102     9 
   94    97   100   103     9 
   98    97   100   101     9 
   98    97   100   102     9 
   98    97   100   103     9 
   99    97   100   101     9 
   99    97   100   102     9 
   99    97   100   103     9 
   97   100   103   104     9 
   97   100   103   105     9 
  101   100   103   104     9 
  101   100   103   105     9 
  102   100   103   104     9 
  102   100   103   105     9 
  100   103   105   106     9 
  100   103   105   107     9 
  104   103   105   106     9 
  104   103   105   107     9 
  103   105   107   108     9 
  103   105   107   109     9 
  103   105   107   110     9 
  106   105   107   108     9 
  106   105   107   109     9 
  106   105   107   110     9 
  105   107   110   111     9 
  105   107   110   112     9 
  105   107   110   113     9 
  108   107   110   111     9 
  108   107   110   112     9 
  108   107   110   113     9 
  109   107   110   111     9 
  109   107   110   112     9 
  109   107   110   113     9 
  107   110   113   114     9 
  107   110   113   115     9 
  107   110   113   116     9 
  111   110   113   114     9 
  111   110   113   115     9 
  111   110   113   116     9 
  112   110   113   114     9 
  112   110   113   115     9 
  112   110   113   116     9 
  110   113   116   117     9 
  110   113   116   118     9 
  110   113   116   119     9 
  114   113   116   117     9 
  114   113   116   118     9 
  114   113   116   119     9 
  115   113   116   117     9 
  115   113   116   118     9 
  115   113   116   119     9 
  113   116   119   120     9 
  113   116   119   121     9 
  113   116   119   122     9 
  117   116   119   120     9 
  117   116   119   121     9 
  117   116   119   122     9 
  118   116   119   120     9 
  118   116   119   121     9 
  118   116   119   122     9 
  116   119   122   123     9 
  116   119   122   124     9 
  116   119   122   125     9 
  120   119   122   123     9 
  120   119   122   124     9 
  120   119   122   125     9 
  121   119   122   123     9 
  121   119   122   124     9 
  121   119   122   125     9 
  119   122   125   126     9 
  119   122   125   127     9 
  119   122   125   128     9 
  123   122   125   126     9 
  123   122   125   127     9 
  123   122   125   128     9 
  124   122   125   126     9 
  124   122   125   127     9 
  124   122   125   128     9 
  122   125   128   129     9 
  122   125   128   130     9 
  122   125   128   131     9 
  126   125   128   129     9 
  126   125   128   130     9 
  126   125   128   131     9 
  127   125   128   129     9 
  127   125   128   130     9 
  127   125   128   131     9 

; Include Position restraint file
#ifdef POSRES
#include "../cg2at-ccd2md/database/fragments/martini_3-1_new_lipidome_charmm36/non_protein/DOEE/DOEE_posre.itp"
#endif

[ system ]
; Name
Protein

[ molecules ]
; Compound        #mols
Other               1
