[ moleculetype ]
; Name            nrexcl
LA                  3

[ atoms ]
;   nr       type  resnr residue  atom   cgnr     charge       mass  typeB    chargeB      massB
; residue   1 LA  rtp LA   q -1.0
     1        OCL      1     LA     O1      1      -0.76    15.9994
     2        OCL      1     LA     O2      1      -0.76    15.9994
     3         CL      1     LA     C1      1       0.62     12.011
     4       CTL2      1     LA     C2      1      -0.28     12.011
     5       HAL2      1     LA    H2R      1       0.09      1.008
     6       HAL2      1     LA    H2S      1       0.09      1.008
     7       CTL2      1     LA     C3      2      -0.18     12.011
     8       HAL2      1     LA    H3R      2       0.09      1.008
     9       HAL2      1     LA    H3S      2       0.09      1.008
    10       CTL2      1     LA     C4      3      -0.18     12.011
    11       HAL2      1     LA    H4R      3       0.09      1.008
    12       HAL2      1     LA    H4S      3       0.09      1.008
    13       CTL2      1     LA     C5      4      -0.18     12.011
    14       HAL2      1     LA    H5R      4       0.09      1.008
    15       HAL2      1     LA    H5S      4       0.09      1.008
    16       CTL2      1     LA     C6      5      -0.18     12.011
    17       HAL2      1     LA    H6R      5       0.09      1.008
    18       HAL2      1     LA    H6S      5       0.09      1.008
    19       CTL2      1     LA     C7      6      -0.18     12.011
    20       HAL2      1     LA    H7R      6       0.09      1.008
    21       HAL2      1     LA    H7S      6       0.09      1.008
    22       CTL2      1     LA     C8      7      -0.18     12.011
    23       HAL2      1     LA    H8R      7       0.09      1.008
    24       HAL2      1     LA    H8S      7       0.09      1.008
    25       CEL1      1     LA     C9      8      -0.15     12.011
    26       HEL1      1     LA    H9R      8       0.15      1.008
    27       CEL1      1     LA    C10      9      -0.15     12.011
    28       HEL1      1     LA   H10R      9       0.15      1.008
    29       CTL2      1     LA    C11     10      -0.18     12.011
    30       HAL2      1     LA   H11R     10       0.09      1.008
    31       HAL2      1     LA   H11S     10       0.09      1.008
    32       CEL1      1     LA    C12     11      -0.15     12.011
    33       HEL1      1     LA   H12R     11       0.15      1.008
    34       CEL1      1     LA    C13     12      -0.15     12.011
    35       HEL1      1     LA   H13R     12       0.15      1.008
    36       CTL2      1     LA    C14     13      -0.18     12.011
    37       HAL2      1     LA   H14R     13       0.09      1.008
    38       HAL2      1     LA   H14S     13       0.09      1.008
    39       CTL2      1     LA    C15     14      -0.18     12.011
    40       HAL2      1     LA   H15R     14       0.09      1.008
    41       HAL2      1     LA   H15S     14       0.09      1.008
    42       CTL2      1     LA    C16     15      -0.18     12.011
    43       HAL2      1     LA   H16R     15       0.09      1.008
    44       HAL2      1     LA   H16S     15       0.09      1.008
    45       CTL2      1     LA    C17     16      -0.18     12.011
    46       HAL2      1     LA   H17R     16       0.09      1.008
    47       HAL2      1     LA   H17S     16       0.09      1.008
    48       CTL3      1     LA    C18     17      -0.27     12.011
    49       HAL3      1     LA   H18R     17       0.09      1.008
    50       HAL3      1     LA   H18S     17       0.09      1.008
    51       HAL3      1     LA   H18T     17       0.09      1.008   ; qtot -1

[ bonds ]
;  ai    aj funct            c0            c1            c2            c3
    1     3     1 
    2     3     1 
    3     4     1 
    4     5     1 
    4     6     1 
    4     7     1 
    7     8     1 
    7     9     1 
    7    10     1 
   10    11     1 
   10    12     1 
   10    13     1 
   13    14     1 
   13    15     1 
   13    16     1 
   16    17     1 
   16    18     1 
   16    19     1 
   19    20     1 
   19    21     1 
   19    22     1 
   22    23     1 
   22    24     1 
   22    25     1 
   25    26     1 
   25    27     1 
   27    28     1 
   27    29     1 
   29    30     1 
   29    31     1 
   29    32     1 
   32    33     1 
   32    34     1 
   34    35     1 
   34    36     1 
   36    37     1 
   36    38     1 
   36    39     1 
   39    40     1 
   39    41     1 
   39    42     1 
   42    43     1 
   42    44     1 
   42    45     1 
   45    46     1 
   45    47     1 
   45    48     1 
   48    49     1 
   48    50     1 
   48    51     1 

[ pairs ]
;  ai    aj funct            c0            c1            c2            c3
    1     5     1 
    1     6     1 
    1     7     1 
    2     5     1 
    2     6     1 
    2     7     1 
    3     8     1 
    3     9     1 
    3    10     1 
    4    11     1 
    4    12     1 
    4    13     1 
    5     8     1 
    5     9     1 
    5    10     1 
    6     8     1 
    6     9     1 
    6    10     1 
    7    14     1 
    7    15     1 
    7    16     1 
    8    11     1 
    8    12     1 
    8    13     1 
    9    11     1 
    9    12     1 
    9    13     1 
   10    17     1 
   10    18     1 
   10    19     1 
   11    14     1 
   11    15     1 
   11    16     1 
   12    14     1 
   12    15     1 
   12    16     1 
   13    20     1 
   13    21     1 
   13    22     1 
   14    17     1 
   14    18     1 
   14    19     1 
   15    17     1 
   15    18     1 
   15    19     1 
   16    23     1 
   16    24     1 
   16    25     1 
   17    20     1 
   17    21     1 
   17    22     1 
   18    20     1 
   18    21     1 
   18    22     1 
   19    26     1 
   19    27     1 
   20    23     1 
   20    24     1 
   20    25     1 
   21    23     1 
   21    24     1 
   21    25     1 
   22    28     1 
   22    29     1 
   23    26     1 
   23    27     1 
   24    26     1 
   24    27     1 
   25    30     1 
   25    31     1 
   25    32     1 
   26    28     1 
   26    29     1 
   27    33     1 
   27    34     1 
   28    30     1 
   28    31     1 
   28    32     1 
   29    35     1 
   29    36     1 
   30    33     1 
   30    34     1 
   31    33     1 
   31    34     1 
   32    37     1 
   32    38     1 
   32    39     1 
   33    35     1 
   33    36     1 
   34    40     1 
   34    41     1 
   34    42     1 
   35    37     1 
   35    38     1 
   35    39     1 
   36    43     1 
   36    44     1 
   36    45     1 
   37    40     1 
   37    41     1 
   37    42     1 
   38    40     1 
   38    41     1 
   38    42     1 
   39    46     1 
   39    47     1 
   39    48     1 
   40    43     1 
   40    44     1 
   40    45     1 
   41    43     1 
   41    44     1 
   41    45     1 
   42    49     1 
   42    50     1 
   42    51     1 
   43    46     1 
   43    47     1 
   43    48     1 
   44    46     1 
   44    47     1 
   44    48     1 
   46    49     1 
   46    50     1 
   46    51     1 
   47    49     1 
   47    50     1 
   47    51     1 

[ angles ]
;  ai    aj    ak funct            c0            c1            c2            c3
    1     3     2     5 
    1     3     4     5 
    2     3     4     5 
    3     4     5     5 
    3     4     6     5 
    3     4     7     5 
    5     4     6     5 
    5     4     7     5 
    6     4     7     5 
    4     7     8     5 
    4     7     9     5 
    4     7    10     5 
    8     7     9     5 
    8     7    10     5 
    9     7    10     5 
    7    10    11     5 
    7    10    12     5 
    7    10    13     5 
   11    10    12     5 
   11    10    13     5 
   12    10    13     5 
   10    13    14     5 
   10    13    15     5 
   10    13    16     5 
   14    13    15     5 
   14    13    16     5 
   15    13    16     5 
   13    16    17     5 
   13    16    18     5 
   13    16    19     5 
   17    16    18     5 
   17    16    19     5 
   18    16    19     5 
   16    19    20     5 
   16    19    21     5 
   16    19    22     5 
   20    19    21     5 
   20    19    22     5 
   21    19    22     5 
   19    22    23     5 
   19    22    24     5 
   19    22    25     5 
   23    22    24     5 
   23    22    25     5 
   24    22    25     5 
   22    25    26     5 
   22    25    27     5 
   26    25    27     5 
   25    27    28     5 
   25    27    29     5 
   28    27    29     5 
   27    29    30     5 
   27    29    31     5 
   27    29    32     5 
   30    29    31     5 
   30    29    32     5 
   31    29    32     5 
   29    32    33     5 
   29    32    34     5 
   33    32    34     5 
   32    34    35     5 
   32    34    36     5 
   35    34    36     5 
   34    36    37     5 
   34    36    38     5 
   34    36    39     5 
   37    36    38     5 
   37    36    39     5 
   38    36    39     5 
   36    39    40     5 
   36    39    41     5 
   36    39    42     5 
   40    39    41     5 
   40    39    42     5 
   41    39    42     5 
   39    42    43     5 
   39    42    44     5 
   39    42    45     5 
   43    42    44     5 
   43    42    45     5 
   44    42    45     5 
   42    45    46     5 
   42    45    47     5 
   42    45    48     5 
   46    45    47     5 
   46    45    48     5 
   47    45    48     5 
   45    48    49     5 
   45    48    50     5 
   45    48    51     5 
   49    48    50     5 
   49    48    51     5 
   50    48    51     5 

[ dihedrals ]
;  ai    aj    ak    al funct            c0            c1            c2            c3            c4            c5
    1     3     4     5     9 
    1     3     4     6     9 
    1     3     4     7     9 
    2     3     4     5     9 
    2     3     4     6     9 
    2     3     4     7     9 
    3     4     7     8     9 
    3     4     7     9     9 
    3     4     7    10     9 
    5     4     7     8     9 
    5     4     7     9     9 
    5     4     7    10     9 
    6     4     7     8     9 
    6     4     7     9     9 
    6     4     7    10     9 
    4     7    10    11     9 
    4     7    10    12     9 
    4     7    10    13     9 
    8     7    10    11     9 
    8     7    10    12     9 
    8     7    10    13     9 
    9     7    10    11     9 
    9     7    10    12     9 
    9     7    10    13     9 
    7    10    13    14     9 
    7    10    13    15     9 
    7    10    13    16     9 
   11    10    13    14     9 
   11    10    13    15     9 
   11    10    13    16     9 
   12    10    13    14     9 
   12    10    13    15     9 
   12    10    13    16     9 
   10    13    16    17     9 
   10    13    16    18     9 
   10    13    16    19     9 
   14    13    16    17     9 
   14    13    16    18     9 
   14    13    16    19     9 
   15    13    16    17     9 
   15    13    16    18     9 
   15    13    16    19     9 
   13    16    19    20     9 
   13    16    19    21     9 
   13    16    19    22     9 
   17    16    19    20     9 
   17    16    19    21     9 
   17    16    19    22     9 
   18    16    19    20     9 
   18    16    19    21     9 
   18    16    19    22     9 
   16    19    22    23     9 
   16    19    22    24     9 
   16    19    22    25     9 
   20    19    22    23     9 
   20    19    22    24     9 
   20    19    22    25     9 
   21    19    22    23     9 
   21    19    22    24     9 
   21    19    22    25     9 
   19    22    25    26     9 
   19    22    25    27     9 
   23    22    25    26     9 
   23    22    25    27     9 
   24    22    25    26     9 
   24    22    25    27     9 
   22    25    27    28     9 
   22    25    27    29     9 
   26    25    27    28     9 
   26    25    27    29     9 
   25    27    29    30     9 
   25    27    29    31     9 
   25    27    29    32     9 
   28    27    29    30     9 
   28    27    29    31     9 
   28    27    29    32     9 
   27    29    32    33     9 
   27    29    32    34     9 
   30    29    32    33     9 
   30    29    32    34     9 
   31    29    32    33     9 
   31    29    32    34     9 
   29    32    34    35     9 
   29    32    34    36     9 
   33    32    34    35     9 
   33    32    34    36     9 
   32    34    36    37     9 
   32    34    36    38     9 
   32    34    36    39     9 
   35    34    36    37     9 
   35    34    36    38     9 
   35    34    36    39     9 
   34    36    39    40     9 
   34    36    39    41     9 
   34    36    39    42     9 
   37    36    39    40     9 
   37    36    39    41     9 
   37    36    39    42     9 
   38    36    39    40     9 
   38    36    39    41     9 
   38    36    39    42     9 
   36    39    42    43     9 
   36    39    42    44     9 
   36    39    42    45     9 
   40    39    42    43     9 
   40    39    42    44     9 
   40    39    42    45     9 
   41    39    42    43     9 
   41    39    42    44     9 
   41    39    42    45     9 
   39    42    45    46     9 
   39    42    45    47     9 
   39    42    45    48     9 
   43    42    45    46     9 
   43    42    45    47     9 
   43    42    45    48     9 
   44    42    45    46     9 
   44    42    45    47     9 
   44    42    45    48     9 
   42    45    48    49     9 
   42    45    48    50     9 
   42    45    48    51     9 
   46    45    48    49     9 
   46    45    48    50     9 
   46    45    48    51     9 
   47    45    48    49     9 
   47    45    48    50     9 
   47    45    48    51     9 

[ dihedrals ]
;  ai    aj    ak    al funct            c0            c1            c2            c3
    3     1     4     2     2 

; Include Position restraint file
#ifdef POSRES
#include "LA_posre.itp"
#endif

