[ moleculetype ]
; Name            nrexcl
DEPC                3

[ atoms ]
;   nr       type  resnr residue  atom   cgnr     charge       mass  typeB    chargeB      massB
; residue   1 DEPC rtp DEPC q  0.0
     1        NTL      1   DEPC      N      1       -0.6     14.007
     2       CTL5      1   DEPC    C13      1      -0.35     12.011
     3         HL      1   DEPC   H13A      1       0.25      1.008
     4         HL      1   DEPC   H13B      1       0.25      1.008
     5         HL      1   DEPC   H13C      1       0.25      1.008
     6       CTL5      1   DEPC    C14      1      -0.35     12.011
     7         HL      1   DEPC   H14A      1       0.25      1.008
     8         HL      1   DEPC   H14B      1       0.25      1.008
     9         HL      1   DEPC   H14C      1       0.25      1.008
    10       CTL5      1   DEPC    C15      1      -0.35     12.011
    11         HL      1   DEPC   H15A      1       0.25      1.008
    12         HL      1   DEPC   H15B      1       0.25      1.008
    13         HL      1   DEPC   H15C      1       0.25      1.008
    14       CTL2      1   DEPC    C12      1       -0.1     12.011
    15         HL      1   DEPC   H12A      1       0.25      1.008
    16         HL      1   DEPC   H12B      1       0.25      1.008
    17       CTL2      1   DEPC    C11      2      -0.08     12.011
    18       HAL2      1   DEPC   H11A      2       0.09      1.008
    19       HAL2      1   DEPC   H11B      2       0.09      1.008
    20         PL      1   DEPC      P      2        1.5     30.974
    21        O2L      1   DEPC    O13      2      -0.78    15.9994
    22        O2L      1   DEPC    O14      2      -0.78    15.9994
    23       OSLP      1   DEPC    O12      2      -0.57    15.9994
    24       OSLP      1   DEPC    O11      2      -0.57    15.9994
    25       CTL2      1   DEPC     C1      2      -0.08     12.011
    26       HAL2      1   DEPC     HA      2       0.09      1.008
    27       HAL2      1   DEPC     HB      2       0.09      1.008
    28       CTL1      1   DEPC     C2      3       0.17     12.011
    29       HAL1      1   DEPC     HS      3       0.09      1.008
    30        OSL      1   DEPC    O21      3      -0.49    15.9994
    31         CL      1   DEPC    C21      3        0.9     12.011
    32        OBL      1   DEPC    O22      3      -0.63    15.9994
    33       CTL2      1   DEPC    C22      3      -0.22     12.011
    34       HAL2      1   DEPC    H2R      3       0.09      1.008
    35       HAL2      1   DEPC    H2S      3       0.09      1.008
    36       CTL2      1   DEPC     C3      4       0.08     12.011
    37       HAL2      1   DEPC     HX      4       0.09      1.008
    38       HAL2      1   DEPC     HY      4       0.09      1.008
    39        OSL      1   DEPC    O31      4      -0.49    15.9994
    40         CL      1   DEPC    C31      4        0.9     12.011
    41        OBL      1   DEPC    O32      4      -0.63    15.9994
    42       CTL2      1   DEPC    C32      4      -0.22     12.011
    43       HAL2      1   DEPC    H2X      4       0.09      1.008
    44       HAL2      1   DEPC    H2Y      4       0.09      1.008
    45       CTL2      1   DEPC    C23      5      -0.18     12.011
    46       HAL2      1   DEPC    H3R      5       0.09      1.008
    47       HAL2      1   DEPC    H3S      5       0.09      1.008
    48       CTL2      1   DEPC    C24      6      -0.18     12.011
    49       HAL2      1   DEPC    H4R      6       0.09      1.008
    50       HAL2      1   DEPC    H4S      6       0.09      1.008
    51       CTL2      1   DEPC    C25      7      -0.18     12.011
    52       HAL2      1   DEPC    H5R      7       0.09      1.008
    53       HAL2      1   DEPC    H5S      7       0.09      1.008
    54       CTL2      1   DEPC    C26      8      -0.18     12.011
    55       HAL2      1   DEPC    H6R      8       0.09      1.008
    56       HAL2      1   DEPC    H6S      8       0.09      1.008
    57       CTL2      1   DEPC    C27      9      -0.18     12.011
    58       HAL2      1   DEPC    H7R      9       0.09      1.008
    59       HAL2      1   DEPC    H7S      9       0.09      1.008
    60       CTL2      1   DEPC    C28     10      -0.18     12.011
    61       HAL2      1   DEPC    H8R     10       0.09      1.008
    62       HAL2      1   DEPC    H8S     10       0.09      1.008
    63       CTL2      1   DEPC    C29     11      -0.18     12.011
    64       HAL2      1   DEPC    H9R     11       0.09      1.008
    65       HAL2      1   DEPC    H9S     11       0.09      1.008
    66       CTL2      1   DEPC   C210     12      -0.18     12.011
    67       HAL2      1   DEPC   H10R     12       0.09      1.008
    68       HAL2      1   DEPC   H10S     12       0.09      1.008
    69       CTL2      1   DEPC   C211     13      -0.18     12.011
    70       HAL2      1   DEPC   H11R     13       0.09      1.008
    71       HAL2      1   DEPC   H11S     13       0.09      1.008
    72       CTL2      1   DEPC   C212     14      -0.18     12.011
    73       HAL2      1   DEPC   H12R     14       0.09      1.008
    74       HAL2      1   DEPC   H12S     14       0.09      1.008
    75       CEL1      1   DEPC   C213     15      -0.15     12.011
    76       HEL1      1   DEPC   H13R     15       0.15      1.008
    77       CEL1      1   DEPC   C214     16      -0.15     12.011
    78       HEL1      1   DEPC   H14R     16       0.15      1.008
    79       CTL2      1   DEPC   C215     17      -0.18     12.011
    80       HAL2      1   DEPC   H15R     17       0.09      1.008
    81       HAL2      1   DEPC   H15S     17       0.09      1.008
    82       CTL2      1   DEPC   C216     18      -0.18     12.011
    83       HAL2      1   DEPC   H16R     18       0.09      1.008
    84       HAL2      1   DEPC   H16S     18       0.09      1.008
    85       CTL2      1   DEPC   C217     19      -0.18     12.011
    86       HAL2      1   DEPC   H17R     19       0.09      1.008
    87       HAL2      1   DEPC   H17S     19       0.09      1.008
    88       CTL2      1   DEPC   C218     20      -0.18     12.011
    89       HAL2      1   DEPC   H18R     20       0.09      1.008
    90       HAL2      1   DEPC   H18S     20       0.09      1.008
    91       CTL2      1   DEPC   C219     21      -0.18     12.011
    92       HAL2      1   DEPC   H19R     21       0.09      1.008
    93       HAL2      1   DEPC   H19S     21       0.09      1.008
    94       CTL2      1   DEPC   C220     22      -0.18     12.011
    95       HAL2      1   DEPC   H20R     22       0.09      1.008
    96       HAL2      1   DEPC   H20S     22       0.09      1.008
    97       CTL2      1   DEPC   C221     23      -0.18     12.011
    98       HAL2      1   DEPC   H21R     23       0.09      1.008
    99       HAL2      1   DEPC   H21S     23       0.09      1.008
   100       CTL3      1   DEPC   C222     24      -0.27     12.011
   101       HAL3      1   DEPC   H22R     24       0.09      1.008
   102       HAL3      1   DEPC   H22S     24       0.09      1.008
   103       HAL3      1   DEPC   H22T     24       0.09      1.008
   104       CTL2      1   DEPC    C33     25      -0.18     12.011
   105       HAL2      1   DEPC    H3X     25       0.09      1.008
   106       HAL2      1   DEPC    H3Y     25       0.09      1.008
   107       CTL2      1   DEPC    C34     26      -0.18     12.011
   108       HAL2      1   DEPC    H4X     26       0.09      1.008
   109       HAL2      1   DEPC    H4Y     26       0.09      1.008
   110       CTL2      1   DEPC    C35     27      -0.18     12.011
   111       HAL2      1   DEPC    H5X     27       0.09      1.008
   112       HAL2      1   DEPC    H5Y     27       0.09      1.008
   113       CTL2      1   DEPC    C36     28      -0.18     12.011
   114       HAL2      1   DEPC    H6X     28       0.09      1.008
   115       HAL2      1   DEPC    H6Y     28       0.09      1.008
   116       CTL2      1   DEPC    C37     29      -0.18     12.011
   117       HAL2      1   DEPC    H7X     29       0.09      1.008
   118       HAL2      1   DEPC    H7Y     29       0.09      1.008
   119       CTL2      1   DEPC    C38     30      -0.18     12.011
   120       HAL2      1   DEPC    H8X     30       0.09      1.008
   121       HAL2      1   DEPC    H8Y     30       0.09      1.008
   122       CTL2      1   DEPC    C39     31      -0.18     12.011
   123       HAL2      1   DEPC    H9X     31       0.09      1.008
   124       HAL2      1   DEPC    H9Y     31       0.09      1.008
   125       CTL2      1   DEPC   C310     32      -0.18     12.011
   126       HAL2      1   DEPC   H10X     32       0.09      1.008
   127       HAL2      1   DEPC   H10Y     32       0.09      1.008
   128       CTL2      1   DEPC   C311     33      -0.18     12.011
   129       HAL2      1   DEPC   H11X     33       0.09      1.008
   130       HAL2      1   DEPC   H11Y     33       0.09      1.008
   131       CTL2      1   DEPC   C312     34      -0.18     12.011
   132       HAL2      1   DEPC   H12X     34       0.09      1.008
   133       HAL2      1   DEPC   H12Y     34       0.09      1.008
   134       CEL1      1   DEPC   C313     35      -0.15     12.011
   135       HEL1      1   DEPC   H13X     35       0.15      1.008
   136       CEL1      1   DEPC   C314     36      -0.15     12.011
   137       HEL1      1   DEPC   H14X     36       0.15      1.008
   138       CTL2      1   DEPC   C315     37      -0.18     12.011
   139       HAL2      1   DEPC   H15X     37       0.09      1.008
   140       HAL2      1   DEPC   H15Y     37       0.09      1.008
   141       CTL2      1   DEPC   C316     38      -0.18     12.011
   142       HAL2      1   DEPC   H16X     38       0.09      1.008
   143       HAL2      1   DEPC   H16Y     38       0.09      1.008
   144       CTL2      1   DEPC   C317     39      -0.18     12.011
   145       HAL2      1   DEPC   H17X     39       0.09      1.008
   146       HAL2      1   DEPC   H17Y     39       0.09      1.008
   147       CTL2      1   DEPC   C318     40      -0.18     12.011
   148       HAL2      1   DEPC   H18X     40       0.09      1.008
   149       HAL2      1   DEPC   H18Y     40       0.09      1.008
   150       CTL2      1   DEPC   C319     41      -0.18     12.011
   151       HAL2      1   DEPC   H19X     41       0.09      1.008
   152       HAL2      1   DEPC   H19Y     41       0.09      1.008
   153       CTL2      1   DEPC   C320     42      -0.18     12.011
   154       HAL2      1   DEPC   H20X     42       0.09      1.008
   155       HAL2      1   DEPC   H20Y     42       0.09      1.008
   156       CTL2      1   DEPC   C321     43      -0.18     12.011
   157       HAL2      1   DEPC   H21X     43       0.09      1.008
   158       HAL2      1   DEPC   H21Y     43       0.09      1.008
   159       CTL3      1   DEPC   C322     44      -0.27     12.011
   160       HAL3      1   DEPC   H22X     44       0.09      1.008
   161       HAL3      1   DEPC   H22Y     44       0.09      1.008
   162       HAL3      1   DEPC   H22Z     44       0.09      1.008   ; qtot 0

[ bonds ]
;  ai    aj funct            c0            c1            c2            c3
    1     2     1 
    1     6     1 
    1    10     1 
    1    14     1 
    2     3     1 
    2     4     1 
    2     5     1 
    6     7     1 
    6     8     1 
    6     9     1 
   10    11     1 
   10    12     1 
   10    13     1 
   14    15     1 
   14    16     1 
   14    17     1 
   17    18     1 
   17    19     1 
   17    23     1 
   20    21     1 
   20    22     1 
   20    23     1 
   20    24     1 
   24    25     1 
   25    26     1 
   25    27     1 
   25    28     1 
   28    29     1 
   28    30     1 
   28    36     1 
   30    31     1 
   31    32     1 
   31    33     1 
   33    34     1 
   33    35     1 
   33    45     1 
   36    37     1 
   36    38     1 
   36    39     1 
   39    40     1 
   40    41     1 
   40    42     1 
   42    43     1 
   42    44     1 
   42   104     1 
   45    46     1 
   45    47     1 
   45    48     1 
   48    49     1 
   48    50     1 
   48    51     1 
   51    52     1 
   51    53     1 
   51    54     1 
   54    55     1 
   54    56     1 
   54    57     1 
   57    58     1 
   57    59     1 
   57    60     1 
   60    61     1 
   60    62     1 
   60    63     1 
   63    64     1 
   63    65     1 
   63    66     1 
   66    67     1 
   66    68     1 
   66    69     1 
   69    70     1 
   69    71     1 
   69    72     1 
   72    73     1 
   72    74     1 
   72    75     1 
   75    76     1 
   75    77     1 
   77    78     1 
   77    79     1 
   79    80     1 
   79    81     1 
   79    82     1 
   82    83     1 
   82    84     1 
   82    85     1 
   85    86     1 
   85    87     1 
   85    88     1 
   88    89     1 
   88    90     1 
   88    91     1 
   91    92     1 
   91    93     1 
   91    94     1 
   94    95     1 
   94    96     1 
   94    97     1 
   97    98     1 
   97    99     1 
   97   100     1 
  100   101     1 
  100   102     1 
  100   103     1 
  104   105     1 
  104   106     1 
  104   107     1 
  107   108     1 
  107   109     1 
  107   110     1 
  110   111     1 
  110   112     1 
  110   113     1 
  113   114     1 
  113   115     1 
  113   116     1 
  116   117     1 
  116   118     1 
  116   119     1 
  119   120     1 
  119   121     1 
  119   122     1 
  122   123     1 
  122   124     1 
  122   125     1 
  125   126     1 
  125   127     1 
  125   128     1 
  128   129     1 
  128   130     1 
  128   131     1 
  131   132     1 
  131   133     1 
  131   134     1 
  134   135     1 
  134   136     1 
  136   137     1 
  136   138     1 
  138   139     1 
  138   140     1 
  138   141     1 
  141   142     1 
  141   143     1 
  141   144     1 
  144   145     1 
  144   146     1 
  144   147     1 
  147   148     1 
  147   149     1 
  147   150     1 
  150   151     1 
  150   152     1 
  150   153     1 
  153   154     1 
  153   155     1 
  153   156     1 
  156   157     1 
  156   158     1 
  156   159     1 
  159   160     1 
  159   161     1 
  159   162     1 

[ pairs ]
;  ai    aj funct            c0            c1            c2            c3
    1    18     1 
    1    19     1 
    1    23     1 
    2     7     1 
    2     8     1 
    2     9     1 
    2    11     1 
    2    12     1 
    2    13     1 
    2    15     1 
    2    16     1 
    2    17     1 
    3     6     1 
    3    10     1 
    3    14     1 
    4     6     1 
    4    10     1 
    4    14     1 
    5     6     1 
    5    10     1 
    5    14     1 
    6    11     1 
    6    12     1 
    6    13     1 
    6    15     1 
    6    16     1 
    6    17     1 
    7    10     1 
    7    14     1 
    8    10     1 
    8    14     1 
    9    10     1 
    9    14     1 
   10    15     1 
   10    16     1 
   10    17     1 
   11    14     1 
   12    14     1 
   13    14     1 
   14    20     1 
   15    18     1 
   15    19     1 
   15    23     1 
   16    18     1 
   16    19     1 
   16    23     1 
   17    21     1 
   17    22     1 
   17    24     1 
   18    20     1 
   19    20     1 
   20    26     1 
   20    27     1 
   20    28     1 
   21    25     1 
   22    25     1 
   23    25     1 
   24    29     1 
   24    30     1 
   24    36     1 
   25    31     1 
   25    37     1 
   25    38     1 
   25    39     1 
   26    29     1 
   26    30     1 
   26    36     1 
   27    29     1 
   27    30     1 
   27    36     1 
   28    32     1 
   28    33     1 
   28    40     1 
   29    31     1 
   29    37     1 
   29    38     1 
   29    39     1 
   30    34     1 
   30    35     1 
   30    37     1 
   30    38     1 
   30    39     1 
   30    45     1 
   31    36     1 
   31    46     1 
   31    47     1 
   31    48     1 
   32    34     1 
   32    35     1 
   32    45     1 
   33    49     1 
   33    50     1 
   33    51     1 
   34    46     1 
   34    47     1 
   34    48     1 
   35    46     1 
   35    47     1 
   35    48     1 
   36    41     1 
   36    42     1 
   37    40     1 
   38    40     1 
   39    43     1 
   39    44     1 
   39   104     1 
   40   105     1 
   40   106     1 
   40   107     1 
   41    43     1 
   41    44     1 
   41   104     1 
   42   108     1 
   42   109     1 
   42   110     1 
   43   105     1 
   43   106     1 
   43   107     1 
   44   105     1 
   44   106     1 
   44   107     1 
   45    52     1 
   45    53     1 
   45    54     1 
   46    49     1 
   46    50     1 
   46    51     1 
   47    49     1 
   47    50     1 
   47    51     1 
   48    55     1 
   48    56     1 
   48    57     1 
   49    52     1 
   49    53     1 
   49    54     1 
   50    52     1 
   50    53     1 
   50    54     1 
   51    58     1 
   51    59     1 
   51    60     1 
   52    55     1 
   52    56     1 
   52    57     1 
   53    55     1 
   53    56     1 
   53    57     1 
   54    61     1 
   54    62     1 
   54    63     1 
   55    58     1 
   55    59     1 
   55    60     1 
   56    58     1 
   56    59     1 
   56    60     1 
   57    64     1 
   57    65     1 
   57    66     1 
   58    61     1 
   58    62     1 
   58    63     1 
   59    61     1 
   59    62     1 
   59    63     1 
   60    67     1 
   60    68     1 
   60    69     1 
   61    64     1 
   61    65     1 
   61    66     1 
   62    64     1 
   62    65     1 
   62    66     1 
   63    70     1 
   63    71     1 
   63    72     1 
   64    67     1 
   64    68     1 
   64    69     1 
   65    67     1 
   65    68     1 
   65    69     1 
   66    73     1 
   66    74     1 
   66    75     1 
   67    70     1 
   67    71     1 
   67    72     1 
   68    70     1 
   68    71     1 
   68    72     1 
   69    76     1 
   69    77     1 
   70    73     1 
   70    74     1 
   70    75     1 
   71    73     1 
   71    74     1 
   71    75     1 
   72    78     1 
   72    79     1 
   73    76     1 
   73    77     1 
   74    76     1 
   74    77     1 
   75    80     1 
   75    81     1 
   75    82     1 
   76    78     1 
   76    79     1 
   77    83     1 
   77    84     1 
   77    85     1 
   78    80     1 
   78    81     1 
   78    82     1 
   79    86     1 
   79    87     1 
   79    88     1 
   80    83     1 
   80    84     1 
   80    85     1 
   81    83     1 
   81    84     1 
   81    85     1 
   82    89     1 
   82    90     1 
   82    91     1 
   83    86     1 
   83    87     1 
   83    88     1 
   84    86     1 
   84    87     1 
   84    88     1 
   85    92     1 
   85    93     1 
   85    94     1 
   86    89     1 
   86    90     1 
   86    91     1 
   87    89     1 
   87    90     1 
   87    91     1 
   88    95     1 
   88    96     1 
   88    97     1 
   89    92     1 
   89    93     1 
   89    94     1 
   90    92     1 
   90    93     1 
   90    94     1 
   91    98     1 
   91    99     1 
   91   100     1 
   92    95     1 
   92    96     1 
   92    97     1 
   93    95     1 
   93    96     1 
   93    97     1 
   94   101     1 
   94   102     1 
   94   103     1 
   95    98     1 
   95    99     1 
   95   100     1 
   96    98     1 
   96    99     1 
   96   100     1 
   98   101     1 
   98   102     1 
   98   103     1 
   99   101     1 
   99   102     1 
   99   103     1 
  104   111     1 
  104   112     1 
  104   113     1 
  105   108     1 
  105   109     1 
  105   110     1 
  106   108     1 
  106   109     1 
  106   110     1 
  107   114     1 
  107   115     1 
  107   116     1 
  108   111     1 
  108   112     1 
  108   113     1 
  109   111     1 
  109   112     1 
  109   113     1 
  110   117     1 
  110   118     1 
  110   119     1 
  111   114     1 
  111   115     1 
  111   116     1 
  112   114     1 
  112   115     1 
  112   116     1 
  113   120     1 
  113   121     1 
  113   122     1 
  114   117     1 
  114   118     1 
  114   119     1 
  115   117     1 
  115   118     1 
  115   119     1 
  116   123     1 
  116   124     1 
  116   125     1 
  117   120     1 
  117   121     1 
  117   122     1 
  118   120     1 
  118   121     1 
  118   122     1 
  119   126     1 
  119   127     1 
  119   128     1 
  120   123     1 
  120   124     1 
  120   125     1 
  121   123     1 
  121   124     1 
  121   125     1 
  122   129     1 
  122   130     1 
  122   131     1 
  123   126     1 
  123   127     1 
  123   128     1 
  124   126     1 
  124   127     1 
  124   128     1 
  125   132     1 
  125   133     1 
  125   134     1 
  126   129     1 
  126   130     1 
  126   131     1 
  127   129     1 
  127   130     1 
  127   131     1 
  128   135     1 
  128   136     1 
  129   132     1 
  129   133     1 
  129   134     1 
  130   132     1 
  130   133     1 
  130   134     1 
  131   137     1 
  131   138     1 
  132   135     1 
  132   136     1 
  133   135     1 
  133   136     1 
  134   139     1 
  134   140     1 
  134   141     1 
  135   137     1 
  135   138     1 
  136   142     1 
  136   143     1 
  136   144     1 
  137   139     1 
  137   140     1 
  137   141     1 
  138   145     1 
  138   146     1 
  138   147     1 
  139   142     1 
  139   143     1 
  139   144     1 
  140   142     1 
  140   143     1 
  140   144     1 
  141   148     1 
  141   149     1 
  141   150     1 
  142   145     1 
  142   146     1 
  142   147     1 
  143   145     1 
  143   146     1 
  143   147     1 
  144   151     1 
  144   152     1 
  144   153     1 
  145   148     1 
  145   149     1 
  145   150     1 
  146   148     1 
  146   149     1 
  146   150     1 
  147   154     1 
  147   155     1 
  147   156     1 
  148   151     1 
  148   152     1 
  148   153     1 
  149   151     1 
  149   152     1 
  149   153     1 
  150   157     1 
  150   158     1 
  150   159     1 
  151   154     1 
  151   155     1 
  151   156     1 
  152   154     1 
  152   155     1 
  152   156     1 
  153   160     1 
  153   161     1 
  153   162     1 
  154   157     1 
  154   158     1 
  154   159     1 
  155   157     1 
  155   158     1 
  155   159     1 
  157   160     1 
  157   161     1 
  157   162     1 
  158   160     1 
  158   161     1 
  158   162     1 

[ angles ]
;  ai    aj    ak funct            c0            c1            c2            c3
    2     1     6     5 
    2     1    10     5 
    2     1    14     5 
    6     1    10     5 
    6     1    14     5 
   10     1    14     5 
    1     2     3     5 
    1     2     4     5 
    1     2     5     5 
    3     2     4     5 
    3     2     5     5 
    4     2     5     5 
    1     6     7     5 
    1     6     8     5 
    1     6     9     5 
    7     6     8     5 
    7     6     9     5 
    8     6     9     5 
    1    10    11     5 
    1    10    12     5 
    1    10    13     5 
   11    10    12     5 
   11    10    13     5 
   12    10    13     5 
    1    14    15     5 
    1    14    16     5 
    1    14    17     5 
   15    14    16     5 
   15    14    17     5 
   16    14    17     5 
   14    17    18     5 
   14    17    19     5 
   14    17    23     5 
   18    17    19     5 
   18    17    23     5 
   19    17    23     5 
   21    20    22     5 
   21    20    23     5 
   21    20    24     5 
   22    20    23     5 
   22    20    24     5 
   23    20    24     5 
   17    23    20     5 
   20    24    25     5 
   24    25    26     5 
   24    25    27     5 
   24    25    28     5 
   26    25    27     5 
   26    25    28     5 
   27    25    28     5 
   25    28    29     5 
   25    28    30     5 
   25    28    36     5 
   29    28    30     5 
   29    28    36     5 
   30    28    36     5 
   28    30    31     5 
   30    31    32     5 
   30    31    33     5 
   32    31    33     5 
   31    33    34     5 
   31    33    35     5 
   31    33    45     5 
   34    33    35     5 
   34    33    45     5 
   35    33    45     5 
   28    36    37     5 
   28    36    38     5 
   28    36    39     5 
   37    36    38     5 
   37    36    39     5 
   38    36    39     5 
   36    39    40     5 
   39    40    41     5 
   39    40    42     5 
   41    40    42     5 
   40    42    43     5 
   40    42    44     5 
   40    42   104     5 
   43    42    44     5 
   43    42   104     5 
   44    42   104     5 
   33    45    46     5 
   33    45    47     5 
   33    45    48     5 
   46    45    47     5 
   46    45    48     5 
   47    45    48     5 
   45    48    49     5 
   45    48    50     5 
   45    48    51     5 
   49    48    50     5 
   49    48    51     5 
   50    48    51     5 
   48    51    52     5 
   48    51    53     5 
   48    51    54     5 
   52    51    53     5 
   52    51    54     5 
   53    51    54     5 
   51    54    55     5 
   51    54    56     5 
   51    54    57     5 
   55    54    56     5 
   55    54    57     5 
   56    54    57     5 
   54    57    58     5 
   54    57    59     5 
   54    57    60     5 
   58    57    59     5 
   58    57    60     5 
   59    57    60     5 
   57    60    61     5 
   57    60    62     5 
   57    60    63     5 
   61    60    62     5 
   61    60    63     5 
   62    60    63     5 
   60    63    64     5 
   60    63    65     5 
   60    63    66     5 
   64    63    65     5 
   64    63    66     5 
   65    63    66     5 
   63    66    67     5 
   63    66    68     5 
   63    66    69     5 
   67    66    68     5 
   67    66    69     5 
   68    66    69     5 
   66    69    70     5 
   66    69    71     5 
   66    69    72     5 
   70    69    71     5 
   70    69    72     5 
   71    69    72     5 
   69    72    73     5 
   69    72    74     5 
   69    72    75     5 
   73    72    74     5 
   73    72    75     5 
   74    72    75     5 
   72    75    76     5 
   72    75    77     5 
   76    75    77     5 
   75    77    78     5 
   75    77    79     5 
   78    77    79     5 
   77    79    80     5 
   77    79    81     5 
   77    79    82     5 
   80    79    81     5 
   80    79    82     5 
   81    79    82     5 
   79    82    83     5 
   79    82    84     5 
   79    82    85     5 
   83    82    84     5 
   83    82    85     5 
   84    82    85     5 
   82    85    86     5 
   82    85    87     5 
   82    85    88     5 
   86    85    87     5 
   86    85    88     5 
   87    85    88     5 
   85    88    89     5 
   85    88    90     5 
   85    88    91     5 
   89    88    90     5 
   89    88    91     5 
   90    88    91     5 
   88    91    92     5 
   88    91    93     5 
   88    91    94     5 
   92    91    93     5 
   92    91    94     5 
   93    91    94     5 
   91    94    95     5 
   91    94    96     5 
   91    94    97     5 
   95    94    96     5 
   95    94    97     5 
   96    94    97     5 
   94    97    98     5 
   94    97    99     5 
   94    97   100     5 
   98    97    99     5 
   98    97   100     5 
   99    97   100     5 
   97   100   101     5 
   97   100   102     5 
   97   100   103     5 
  101   100   102     5 
  101   100   103     5 
  102   100   103     5 
   42   104   105     5 
   42   104   106     5 
   42   104   107     5 
  105   104   106     5 
  105   104   107     5 
  106   104   107     5 
  104   107   108     5 
  104   107   109     5 
  104   107   110     5 
  108   107   109     5 
  108   107   110     5 
  109   107   110     5 
  107   110   111     5 
  107   110   112     5 
  107   110   113     5 
  111   110   112     5 
  111   110   113     5 
  112   110   113     5 
  110   113   114     5 
  110   113   115     5 
  110   113   116     5 
  114   113   115     5 
  114   113   116     5 
  115   113   116     5 
  113   116   117     5 
  113   116   118     5 
  113   116   119     5 
  117   116   118     5 
  117   116   119     5 
  118   116   119     5 
  116   119   120     5 
  116   119   121     5 
  116   119   122     5 
  120   119   121     5 
  120   119   122     5 
  121   119   122     5 
  119   122   123     5 
  119   122   124     5 
  119   122   125     5 
  123   122   124     5 
  123   122   125     5 
  124   122   125     5 
  122   125   126     5 
  122   125   127     5 
  122   125   128     5 
  126   125   127     5 
  126   125   128     5 
  127   125   128     5 
  125   128   129     5 
  125   128   130     5 
  125   128   131     5 
  129   128   130     5 
  129   128   131     5 
  130   128   131     5 
  128   131   132     5 
  128   131   133     5 
  128   131   134     5 
  132   131   133     5 
  132   131   134     5 
  133   131   134     5 
  131   134   135     5 
  131   134   136     5 
  135   134   136     5 
  134   136   137     5 
  134   136   138     5 
  137   136   138     5 
  136   138   139     5 
  136   138   140     5 
  136   138   141     5 
  139   138   140     5 
  139   138   141     5 
  140   138   141     5 
  138   141   142     5 
  138   141   143     5 
  138   141   144     5 
  142   141   143     5 
  142   141   144     5 
  143   141   144     5 
  141   144   145     5 
  141   144   146     5 
  141   144   147     5 
  145   144   146     5 
  145   144   147     5 
  146   144   147     5 
  144   147   148     5 
  144   147   149     5 
  144   147   150     5 
  148   147   149     5 
  148   147   150     5 
  149   147   150     5 
  147   150   151     5 
  147   150   152     5 
  147   150   153     5 
  151   150   152     5 
  151   150   153     5 
  152   150   153     5 
  150   153   154     5 
  150   153   155     5 
  150   153   156     5 
  154   153   155     5 
  154   153   156     5 
  155   153   156     5 
  153   156   157     5 
  153   156   158     5 
  153   156   159     5 
  157   156   158     5 
  157   156   159     5 
  158   156   159     5 
  156   159   160     5 
  156   159   161     5 
  156   159   162     5 
  160   159   161     5 
  160   159   162     5 
  161   159   162     5 

[ dihedrals ]
;  ai    aj    ak    al funct            c0            c1            c2            c3            c4            c5
    6     1     2     3     9 
    6     1     2     4     9 
    6     1     2     5     9 
   10     1     2     3     9 
   10     1     2     4     9 
   10     1     2     5     9 
   14     1     2     3     9 
   14     1     2     4     9 
   14     1     2     5     9 
    2     1     6     7     9 
    2     1     6     8     9 
    2     1     6     9     9 
   10     1     6     7     9 
   10     1     6     8     9 
   10     1     6     9     9 
   14     1     6     7     9 
   14     1     6     8     9 
   14     1     6     9     9 
    2     1    10    11     9 
    2     1    10    12     9 
    2     1    10    13     9 
    6     1    10    11     9 
    6     1    10    12     9 
    6     1    10    13     9 
   14     1    10    11     9 
   14     1    10    12     9 
   14     1    10    13     9 
    2     1    14    15     9 
    2     1    14    16     9 
    2     1    14    17     9 
    6     1    14    15     9 
    6     1    14    16     9 
    6     1    14    17     9 
   10     1    14    15     9 
   10     1    14    16     9 
   10     1    14    17     9 
    1    14    17    18     9 
    1    14    17    19     9 
    1    14    17    23     9 
   15    14    17    18     9 
   15    14    17    19     9 
   15    14    17    23     9 
   16    14    17    18     9 
   16    14    17    19     9 
   16    14    17    23     9 
   14    17    23    20     9 
   18    17    23    20     9 
   19    17    23    20     9 
   21    20    23    17     9 
   22    20    23    17     9 
   24    20    23    17     9 
   21    20    24    25     9 
   22    20    24    25     9 
   23    20    24    25     9 
   20    24    25    26     9 
   20    24    25    27     9 
   20    24    25    28     9 
   24    25    28    29     9 
   24    25    28    30     9 
   24    25    28    36     9 
   26    25    28    29     9 
   26    25    28    30     9 
   26    25    28    36     9 
   27    25    28    29     9 
   27    25    28    30     9 
   27    25    28    36     9 
   25    28    30    31     9 
   29    28    30    31     9 
   36    28    30    31     9 
   25    28    36    37     9 
   25    28    36    38     9 
   25    28    36    39     9 
   29    28    36    37     9 
   29    28    36    38     9 
   29    28    36    39     9 
   30    28    36    37     9 
   30    28    36    38     9 
   30    28    36    39     9 
   28    30    31    32     9 
   28    30    31    33     9 
   30    31    33    34     9 
   30    31    33    35     9 
   30    31    33    45     9 
   32    31    33    34     9 
   32    31    33    35     9 
   32    31    33    45     9 
   31    33    45    46     9 
   31    33    45    47     9 
   31    33    45    48     9 
   34    33    45    46     9 
   34    33    45    47     9 
   34    33    45    48     9 
   35    33    45    46     9 
   35    33    45    47     9 
   35    33    45    48     9 
   28    36    39    40     9 
   37    36    39    40     9 
   38    36    39    40     9 
   36    39    40    41     9 
   36    39    40    42     9 
   39    40    42    43     9 
   39    40    42    44     9 
   39    40    42   104     9 
   41    40    42    43     9 
   41    40    42    44     9 
   41    40    42   104     9 
   40    42   104   105     9 
   40    42   104   106     9 
   40    42   104   107     9 
   43    42   104   105     9 
   43    42   104   106     9 
   43    42   104   107     9 
   44    42   104   105     9 
   44    42   104   106     9 
   44    42   104   107     9 
   33    45    48    49     9 
   33    45    48    50     9 
   33    45    48    51     9 
   46    45    48    49     9 
   46    45    48    50     9 
   46    45    48    51     9 
   47    45    48    49     9 
   47    45    48    50     9 
   47    45    48    51     9 
   45    48    51    52     9 
   45    48    51    53     9 
   45    48    51    54     9 
   49    48    51    52     9 
   49    48    51    53     9 
   49    48    51    54     9 
   50    48    51    52     9 
   50    48    51    53     9 
   50    48    51    54     9 
   48    51    54    55     9 
   48    51    54    56     9 
   48    51    54    57     9 
   52    51    54    55     9 
   52    51    54    56     9 
   52    51    54    57     9 
   53    51    54    55     9 
   53    51    54    56     9 
   53    51    54    57     9 
   51    54    57    58     9 
   51    54    57    59     9 
   51    54    57    60     9 
   55    54    57    58     9 
   55    54    57    59     9 
   55    54    57    60     9 
   56    54    57    58     9 
   56    54    57    59     9 
   56    54    57    60     9 
   54    57    60    61     9 
   54    57    60    62     9 
   54    57    60    63     9 
   58    57    60    61     9 
   58    57    60    62     9 
   58    57    60    63     9 
   59    57    60    61     9 
   59    57    60    62     9 
   59    57    60    63     9 
   57    60    63    64     9 
   57    60    63    65     9 
   57    60    63    66     9 
   61    60    63    64     9 
   61    60    63    65     9 
   61    60    63    66     9 
   62    60    63    64     9 
   62    60    63    65     9 
   62    60    63    66     9 
   60    63    66    67     9 
   60    63    66    68     9 
   60    63    66    69     9 
   64    63    66    67     9 
   64    63    66    68     9 
   64    63    66    69     9 
   65    63    66    67     9 
   65    63    66    68     9 
   65    63    66    69     9 
   63    66    69    70     9 
   63    66    69    71     9 
   63    66    69    72     9 
   67    66    69    70     9 
   67    66    69    71     9 
   67    66    69    72     9 
   68    66    69    70     9 
   68    66    69    71     9 
   68    66    69    72     9 
   66    69    72    73     9 
   66    69    72    74     9 
   66    69    72    75     9 
   70    69    72    73     9 
   70    69    72    74     9 
   70    69    72    75     9 
   71    69    72    73     9 
   71    69    72    74     9 
   71    69    72    75     9 
   69    72    75    76     9 
   69    72    75    77     9 
   73    72    75    76     9 
   73    72    75    77     9 
   74    72    75    76     9 
   74    72    75    77     9 
   72    75    77    78     9 
   72    75    77    79     9 
   76    75    77    78     9 
   76    75    77    79     9 
   75    77    79    80     9 
   75    77    79    81     9 
   75    77    79    82     9 
   78    77    79    80     9 
   78    77    79    81     9 
   78    77    79    82     9 
   77    79    82    83     9 
   77    79    82    84     9 
   77    79    82    85     9 
   80    79    82    83     9 
   80    79    82    84     9 
   80    79    82    85     9 
   81    79    82    83     9 
   81    79    82    84     9 
   81    79    82    85     9 
   79    82    85    86     9 
   79    82    85    87     9 
   79    82    85    88     9 
   83    82    85    86     9 
   83    82    85    87     9 
   83    82    85    88     9 
   84    82    85    86     9 
   84    82    85    87     9 
   84    82    85    88     9 
   82    85    88    89     9 
   82    85    88    90     9 
   82    85    88    91     9 
   86    85    88    89     9 
   86    85    88    90     9 
   86    85    88    91     9 
   87    85    88    89     9 
   87    85    88    90     9 
   87    85    88    91     9 
   85    88    91    92     9 
   85    88    91    93     9 
   85    88    91    94     9 
   89    88    91    92     9 
   89    88    91    93     9 
   89    88    91    94     9 
   90    88    91    92     9 
   90    88    91    93     9 
   90    88    91    94     9 
   88    91    94    95     9 
   88    91    94    96     9 
   88    91    94    97     9 
   92    91    94    95     9 
   92    91    94    96     9 
   92    91    94    97     9 
   93    91    94    95     9 
   93    91    94    96     9 
   93    91    94    97     9 
   91    94    97    98     9 
   91    94    97    99     9 
   91    94    97   100     9 
   95    94    97    98     9 
   95    94    97    99     9 
   95    94    97   100     9 
   96    94    97    98     9 
   96    94    97    99     9 
   96    94    97   100     9 
   94    97   100   101     9 
   94    97   100   102     9 
   94    97   100   103     9 
   98    97   100   101     9 
   98    97   100   102     9 
   98    97   100   103     9 
   99    97   100   101     9 
   99    97   100   102     9 
   99    97   100   103     9 
   42   104   107   108     9 
   42   104   107   109     9 
   42   104   107   110     9 
  105   104   107   108     9 
  105   104   107   109     9 
  105   104   107   110     9 
  106   104   107   108     9 
  106   104   107   109     9 
  106   104   107   110     9 
  104   107   110   111     9 
  104   107   110   112     9 
  104   107   110   113     9 
  108   107   110   111     9 
  108   107   110   112     9 
  108   107   110   113     9 
  109   107   110   111     9 
  109   107   110   112     9 
  109   107   110   113     9 
  107   110   113   114     9 
  107   110   113   115     9 
  107   110   113   116     9 
  111   110   113   114     9 
  111   110   113   115     9 
  111   110   113   116     9 
  112   110   113   114     9 
  112   110   113   115     9 
  112   110   113   116     9 
  110   113   116   117     9 
  110   113   116   118     9 
  110   113   116   119     9 
  114   113   116   117     9 
  114   113   116   118     9 
  114   113   116   119     9 
  115   113   116   117     9 
  115   113   116   118     9 
  115   113   116   119     9 
  113   116   119   120     9 
  113   116   119   121     9 
  113   116   119   122     9 
  117   116   119   120     9 
  117   116   119   121     9 
  117   116   119   122     9 
  118   116   119   120     9 
  118   116   119   121     9 
  118   116   119   122     9 
  116   119   122   123     9 
  116   119   122   124     9 
  116   119   122   125     9 
  120   119   122   123     9 
  120   119   122   124     9 
  120   119   122   125     9 
  121   119   122   123     9 
  121   119   122   124     9 
  121   119   122   125     9 
  119   122   125   126     9 
  119   122   125   127     9 
  119   122   125   128     9 
  123   122   125   126     9 
  123   122   125   127     9 
  123   122   125   128     9 
  124   122   125   126     9 
  124   122   125   127     9 
  124   122   125   128     9 
  122   125   128   129     9 
  122   125   128   130     9 
  122   125   128   131     9 
  126   125   128   129     9 
  126   125   128   130     9 
  126   125   128   131     9 
  127   125   128   129     9 
  127   125   128   130     9 
  127   125   128   131     9 
  125   128   131   132     9 
  125   128   131   133     9 
  125   128   131   134     9 
  129   128   131   132     9 
  129   128   131   133     9 
  129   128   131   134     9 
  130   128   131   132     9 
  130   128   131   133     9 
  130   128   131   134     9 
  128   131   134   135     9 
  128   131   134   136     9 
  132   131   134   135     9 
  132   131   134   136     9 
  133   131   134   135     9 
  133   131   134   136     9 
  131   134   136   137     9 
  131   134   136   138     9 
  135   134   136   137     9 
  135   134   136   138     9 
  134   136   138   139     9 
  134   136   138   140     9 
  134   136   138   141     9 
  137   136   138   139     9 
  137   136   138   140     9 
  137   136   138   141     9 
  136   138   141   142     9 
  136   138   141   143     9 
  136   138   141   144     9 
  139   138   141   142     9 
  139   138   141   143     9 
  139   138   141   144     9 
  140   138   141   142     9 
  140   138   141   143     9 
  140   138   141   144     9 
  138   141   144   145     9 
  138   141   144   146     9 
  138   141   144   147     9 
  142   141   144   145     9 
  142   141   144   146     9 
  142   141   144   147     9 
  143   141   144   145     9 
  143   141   144   146     9 
  143   141   144   147     9 
  141   144   147   148     9 
  141   144   147   149     9 
  141   144   147   150     9 
  145   144   147   148     9 
  145   144   147   149     9 
  145   144   147   150     9 
  146   144   147   148     9 
  146   144   147   149     9 
  146   144   147   150     9 
  144   147   150   151     9 
  144   147   150   152     9 
  144   147   150   153     9 
  148   147   150   151     9 
  148   147   150   152     9 
  148   147   150   153     9 
  149   147   150   151     9 
  149   147   150   152     9 
  149   147   150   153     9 
  147   150   153   154     9 
  147   150   153   155     9 
  147   150   153   156     9 
  151   150   153   154     9 
  151   150   153   155     9 
  151   150   153   156     9 
  152   150   153   154     9 
  152   150   153   155     9 
  152   150   153   156     9 
  150   153   156   157     9 
  150   153   156   158     9 
  150   153   156   159     9 
  154   153   156   157     9 
  154   153   156   158     9 
  154   153   156   159     9 
  155   153   156   157     9 
  155   153   156   158     9 
  155   153   156   159     9 
  153   156   159   160     9 
  153   156   159   161     9 
  153   156   159   162     9 
  157   156   159   160     9 
  157   156   159   161     9 
  157   156   159   162     9 
  158   156   159   160     9 
  158   156   159   161     9 
  158   156   159   162     9 

[ dihedrals ]
;  ai    aj    ak    al funct            c0            c1            c2            c3
   31    30    33    32     2 
   40    39    42    41     2 

; Include Position restraint file
#ifdef POSRES
#include "DEPC_posre.itp"
#endif

