[ moleculetype ]
; Name            nrexcl
LFPC                3

[ atoms ]
;   nr       type  resnr residue  atom   cgnr     charge       mass  typeB    chargeB      massB
; residue   1 LFPC rtp LFPC q  0.0
     1        NTL      1   LFPC      N      1       -0.6     14.007
     2       CTL5      1   LFPC    C13      1      -0.35     12.011
     3         HL      1   LFPC   H13A      1       0.25      1.008
     4         HL      1   LFPC   H13B      1       0.25      1.008
     5         HL      1   LFPC   H13C      1       0.25      1.008
     6       CTL5      1   LFPC    C14      1      -0.35     12.011
     7         HL      1   LFPC   H14A      1       0.25      1.008
     8         HL      1   LFPC   H14B      1       0.25      1.008
     9         HL      1   LFPC   H14C      1       0.25      1.008
    10       CTL5      1   LFPC    C15      1      -0.35     12.011
    11         HL      1   LFPC   H15A      1       0.25      1.008
    12         HL      1   LFPC   H15B      1       0.25      1.008
    13         HL      1   LFPC   H15C      1       0.25      1.008
    14       CTL2      1   LFPC    C12      1       -0.1     12.011
    15         HL      1   LFPC   H12A      1       0.25      1.008
    16         HL      1   LFPC   H12B      1       0.25      1.008
    17       CTL2      1   LFPC    C11      2      -0.08     12.011
    18       HAL2      1   LFPC   H11A      2       0.09      1.008
    19       HAL2      1   LFPC   H11B      2       0.09      1.008
    20         PL      1   LFPC      P      2        1.5     30.974
    21        O2L      1   LFPC    O13      2      -0.78    15.9994
    22        O2L      1   LFPC    O14      2      -0.78    15.9994
    23       OSLP      1   LFPC    O12      2      -0.57    15.9994
    24       OSLP      1   LFPC    O11      2      -0.57    15.9994
    25       CTL2      1   LFPC     C1      2      -0.08     12.011
    26       HAL2      1   LFPC     HA      2       0.09      1.008
    27       HAL2      1   LFPC     HB      2       0.09      1.008
    28       CTL1      1   LFPC     C2      3       0.17     12.011
    29       HAL1      1   LFPC     HS      3       0.09      1.008
    30        OSL      1   LFPC    O21      3      -0.49    15.9994
    31         CL      1   LFPC    C21      3        0.9     12.011
    32        OBL      1   LFPC    O22      3      -0.63    15.9994
    33       CTL2      1   LFPC    C22      3      -0.22     12.011
    34       HAL2      1   LFPC    H2R      3       0.09      1.008
    35       HAL2      1   LFPC    H2S      3       0.09      1.008
    36       CTL2      1   LFPC     C3      4       0.08     12.011
    37       HAL2      1   LFPC     HX      4       0.09      1.008
    38       HAL2      1   LFPC     HY      4       0.09      1.008
    39        OSL      1   LFPC    O31      4      -0.49    15.9994
    40         CL      1   LFPC    C31      4        0.9     12.011
    41        OBL      1   LFPC    O32      4      -0.63    15.9994
    42       CTL2      1   LFPC    C32      4      -0.22     12.011
    43       HAL2      1   LFPC    H2X      4       0.09      1.008
    44       HAL2      1   LFPC    H2Y      4       0.09      1.008
    45       CTL2      1   LFPC    C23      5      -0.18     12.011
    46       HAL2      1   LFPC    H3R      5       0.09      1.008
    47       HAL2      1   LFPC    H3S      5       0.09      1.008
    48       CTL2      1   LFPC    C24      6      -0.18     12.011
    49       HAL2      1   LFPC    H4R      6       0.09      1.008
    50       HAL2      1   LFPC    H4S      6       0.09      1.008
    51       CTL2      1   LFPC    C25      7      -0.18     12.011
    52       HAL2      1   LFPC    H5R      7       0.09      1.008
    53       HAL2      1   LFPC    H5S      7       0.09      1.008
    54       CTL2      1   LFPC    C26      8      -0.18     12.011
    55       HAL2      1   LFPC    H6R      8       0.09      1.008
    56       HAL2      1   LFPC    H6S      8       0.09      1.008
    57       CTL2      1   LFPC    C27      9      -0.18     12.011
    58       HAL2      1   LFPC    H7R      9       0.09      1.008
    59       HAL2      1   LFPC    H7S      9       0.09      1.008
    60       CTL2      1   LFPC    C28     10      -0.18     12.011
    61       HAL2      1   LFPC    H8R     10       0.09      1.008
    62       HAL2      1   LFPC    H8S     10       0.09      1.008
    63       CEL1      1   LFPC    C29     11      -0.15     12.011
    64       HEL1      1   LFPC    H9R     11       0.15      1.008
    65       CEL1      1   LFPC   C210     12      -0.15     12.011
    66       HEL1      1   LFPC   H10R     12       0.15      1.008
    67       CTL2      1   LFPC   C211     13      -0.18     12.011
    68       HAL2      1   LFPC   H11R     13       0.09      1.008
    69       HAL2      1   LFPC   H11S     13       0.09      1.008
    70       CEL1      1   LFPC   C212     14      -0.15     12.011
    71       HEL1      1   LFPC   H12R     14       0.15      1.008
    72       CEL1      1   LFPC   C213     15      -0.15     12.011
    73       HEL1      1   LFPC   H13R     15       0.15      1.008
    74       CTL2      1   LFPC   C214     16      -0.18     12.011
    75       HAL2      1   LFPC   H14R     16       0.09      1.008
    76       HAL2      1   LFPC   H14S     16       0.09      1.008
    77       CEL1      1   LFPC   C215     17      -0.15     12.011
    78       HEL1      1   LFPC   H15R     17       0.15      1.008
    79       CEL1      1   LFPC   C216     18      -0.15     12.011
    80       HEL1      1   LFPC   H16R     18       0.15      1.008
    81       CTL2      1   LFPC   C217     19      -0.18     12.011
    82       HAL2      1   LFPC   H17R     19       0.09      1.008
    83       HAL2      1   LFPC   H17S     19       0.09      1.008
    84       CTL3      1   LFPC   C218     20      -0.27     12.011
    85       HAL3      1   LFPC   H18R     20       0.09      1.008
    86       HAL3      1   LFPC   H18S     20       0.09      1.008
    87       HAL3      1   LFPC   H18T     20       0.09      1.008
    88       CTL2      1   LFPC    C33     21      -0.18     12.011
    89       HAL2      1   LFPC    H3X     21       0.09      1.008
    90       HAL2      1   LFPC    H3Y     21       0.09      1.008
    91       CTL2      1   LFPC    C34     22      -0.18     12.011
    92       HAL2      1   LFPC    H4X     22       0.09      1.008
    93       HAL2      1   LFPC    H4Y     22       0.09      1.008
    94       CTL2      1   LFPC    C35     23      -0.18     12.011
    95       HAL2      1   LFPC    H5X     23       0.09      1.008
    96       HAL2      1   LFPC    H5Y     23       0.09      1.008
    97       CTL2      1   LFPC    C36     24      -0.18     12.011
    98       HAL2      1   LFPC    H6X     24       0.09      1.008
    99       HAL2      1   LFPC    H6Y     24       0.09      1.008
   100       CTL2      1   LFPC    C37     25      -0.18     12.011
   101       HAL2      1   LFPC    H7X     25       0.09      1.008
   102       HAL2      1   LFPC    H7Y     25       0.09      1.008
   103       CTL2      1   LFPC    C38     26      -0.18     12.011
   104       HAL2      1   LFPC    H8X     26       0.09      1.008
   105       HAL2      1   LFPC    H8Y     26       0.09      1.008
   106       CEL1      1   LFPC    C39     27      -0.15     12.011
   107       HEL1      1   LFPC    H9X     27       0.15      1.008
   108       CEL1      1   LFPC   C310     28      -0.15     12.011
   109       HEL1      1   LFPC   H10X     28       0.15      1.008
   110       CTL2      1   LFPC   C311     29      -0.18     12.011
   111       HAL2      1   LFPC   H11X     29       0.09      1.008
   112       HAL2      1   LFPC   H11Y     29       0.09      1.008
   113       CEL1      1   LFPC   C312     30      -0.15     12.011
   114       HEL1      1   LFPC   H12X     30       0.15      1.008
   115       CEL1      1   LFPC   C313     31      -0.15     12.011
   116       HEL1      1   LFPC   H13X     31       0.15      1.008
   117       CTL2      1   LFPC   C314     32      -0.18     12.011
   118       HAL2      1   LFPC   H14X     32       0.09      1.008
   119       HAL2      1   LFPC   H14Y     32       0.09      1.008
   120       CTL2      1   LFPC   C315     33      -0.18     12.011
   121       HAL2      1   LFPC   H15X     33       0.09      1.008
   122       HAL2      1   LFPC   H15Y     33       0.09      1.008
   123       CTL2      1   LFPC   C316     34      -0.18     12.011
   124       HAL2      1   LFPC   H16X     34       0.09      1.008
   125       HAL2      1   LFPC   H16Y     34       0.09      1.008
   126       CTL2      1   LFPC   C317     35      -0.18     12.011
   127       HAL2      1   LFPC   H17X     35       0.09      1.008
   128       HAL2      1   LFPC   H17Y     35       0.09      1.008
   129       CTL3      1   LFPC   C318     36      -0.27     12.011
   130       HAL3      1   LFPC   H18X     36       0.09      1.008
   131       HAL3      1   LFPC   H18Y     36       0.09      1.008
   132       HAL3      1   LFPC   H18Z     36       0.09      1.008   ; qtot 0

[ bonds ]
;  ai    aj funct            c0            c1            c2            c3
    1     2     1 
    1     6     1 
    1    10     1 
    1    14     1 
    2     3     1 
    2     4     1 
    2     5     1 
    6     7     1 
    6     8     1 
    6     9     1 
   10    11     1 
   10    12     1 
   10    13     1 
   14    15     1 
   14    16     1 
   14    17     1 
   17    18     1 
   17    19     1 
   17    23     1 
   20    21     1 
   20    22     1 
   20    23     1 
   20    24     1 
   24    25     1 
   25    26     1 
   25    27     1 
   25    28     1 
   28    29     1 
   28    30     1 
   28    36     1 
   30    31     1 
   31    32     1 
   31    33     1 
   33    34     1 
   33    35     1 
   33    45     1 
   36    37     1 
   36    38     1 
   36    39     1 
   39    40     1 
   40    41     1 
   40    42     1 
   42    43     1 
   42    44     1 
   42    88     1 
   45    46     1 
   45    47     1 
   45    48     1 
   48    49     1 
   48    50     1 
   48    51     1 
   51    52     1 
   51    53     1 
   51    54     1 
   54    55     1 
   54    56     1 
   54    57     1 
   57    58     1 
   57    59     1 
   57    60     1 
   60    61     1 
   60    62     1 
   60    63     1 
   63    64     1 
   63    65     1 
   65    66     1 
   65    67     1 
   67    68     1 
   67    69     1 
   67    70     1 
   70    71     1 
   70    72     1 
   72    73     1 
   72    74     1 
   74    75     1 
   74    76     1 
   74    77     1 
   77    78     1 
   77    79     1 
   79    80     1 
   79    81     1 
   81    82     1 
   81    83     1 
   81    84     1 
   84    85     1 
   84    86     1 
   84    87     1 
   88    89     1 
   88    90     1 
   88    91     1 
   91    92     1 
   91    93     1 
   91    94     1 
   94    95     1 
   94    96     1 
   94    97     1 
   97    98     1 
   97    99     1 
   97   100     1 
  100   101     1 
  100   102     1 
  100   103     1 
  103   104     1 
  103   105     1 
  103   106     1 
  106   107     1 
  106   108     1 
  108   109     1 
  108   110     1 
  110   111     1 
  110   112     1 
  110   113     1 
  113   114     1 
  113   115     1 
  115   116     1 
  115   117     1 
  117   118     1 
  117   119     1 
  117   120     1 
  120   121     1 
  120   122     1 
  120   123     1 
  123   124     1 
  123   125     1 
  123   126     1 
  126   127     1 
  126   128     1 
  126   129     1 
  129   130     1 
  129   131     1 
  129   132     1 

[ pairs ]
;  ai    aj funct            c0            c1            c2            c3
    1    18     1 
    1    19     1 
    1    23     1 
    2     7     1 
    2     8     1 
    2     9     1 
    2    11     1 
    2    12     1 
    2    13     1 
    2    15     1 
    2    16     1 
    2    17     1 
    3     6     1 
    3    10     1 
    3    14     1 
    4     6     1 
    4    10     1 
    4    14     1 
    5     6     1 
    5    10     1 
    5    14     1 
    6    11     1 
    6    12     1 
    6    13     1 
    6    15     1 
    6    16     1 
    6    17     1 
    7    10     1 
    7    14     1 
    8    10     1 
    8    14     1 
    9    10     1 
    9    14     1 
   10    15     1 
   10    16     1 
   10    17     1 
   11    14     1 
   12    14     1 
   13    14     1 
   14    20     1 
   15    18     1 
   15    19     1 
   15    23     1 
   16    18     1 
   16    19     1 
   16    23     1 
   17    21     1 
   17    22     1 
   17    24     1 
   18    20     1 
   19    20     1 
   20    26     1 
   20    27     1 
   20    28     1 
   21    25     1 
   22    25     1 
   23    25     1 
   24    29     1 
   24    30     1 
   24    36     1 
   25    31     1 
   25    37     1 
   25    38     1 
   25    39     1 
   26    29     1 
   26    30     1 
   26    36     1 
   27    29     1 
   27    30     1 
   27    36     1 
   28    32     1 
   28    33     1 
   28    40     1 
   29    31     1 
   29    37     1 
   29    38     1 
   29    39     1 
   30    34     1 
   30    35     1 
   30    37     1 
   30    38     1 
   30    39     1 
   30    45     1 
   31    36     1 
   31    46     1 
   31    47     1 
   31    48     1 
   32    34     1 
   32    35     1 
   32    45     1 
   33    49     1 
   33    50     1 
   33    51     1 
   34    46     1 
   34    47     1 
   34    48     1 
   35    46     1 
   35    47     1 
   35    48     1 
   36    41     1 
   36    42     1 
   37    40     1 
   38    40     1 
   39    43     1 
   39    44     1 
   39    88     1 
   40    89     1 
   40    90     1 
   40    91     1 
   41    43     1 
   41    44     1 
   41    88     1 
   42    92     1 
   42    93     1 
   42    94     1 
   43    89     1 
   43    90     1 
   43    91     1 
   44    89     1 
   44    90     1 
   44    91     1 
   45    52     1 
   45    53     1 
   45    54     1 
   46    49     1 
   46    50     1 
   46    51     1 
   47    49     1 
   47    50     1 
   47    51     1 
   48    55     1 
   48    56     1 
   48    57     1 
   49    52     1 
   49    53     1 
   49    54     1 
   50    52     1 
   50    53     1 
   50    54     1 
   51    58     1 
   51    59     1 
   51    60     1 
   52    55     1 
   52    56     1 
   52    57     1 
   53    55     1 
   53    56     1 
   53    57     1 
   54    61     1 
   54    62     1 
   54    63     1 
   55    58     1 
   55    59     1 
   55    60     1 
   56    58     1 
   56    59     1 
   56    60     1 
   57    64     1 
   57    65     1 
   58    61     1 
   58    62     1 
   58    63     1 
   59    61     1 
   59    62     1 
   59    63     1 
   60    66     1 
   60    67     1 
   61    64     1 
   61    65     1 
   62    64     1 
   62    65     1 
   63    68     1 
   63    69     1 
   63    70     1 
   64    66     1 
   64    67     1 
   65    71     1 
   65    72     1 
   66    68     1 
   66    69     1 
   66    70     1 
   67    73     1 
   67    74     1 
   68    71     1 
   68    72     1 
   69    71     1 
   69    72     1 
   70    75     1 
   70    76     1 
   70    77     1 
   71    73     1 
   71    74     1 
   72    78     1 
   72    79     1 
   73    75     1 
   73    76     1 
   73    77     1 
   74    80     1 
   74    81     1 
   75    78     1 
   75    79     1 
   76    78     1 
   76    79     1 
   77    82     1 
   77    83     1 
   77    84     1 
   78    80     1 
   78    81     1 
   79    85     1 
   79    86     1 
   79    87     1 
   80    82     1 
   80    83     1 
   80    84     1 
   82    85     1 
   82    86     1 
   82    87     1 
   83    85     1 
   83    86     1 
   83    87     1 
   88    95     1 
   88    96     1 
   88    97     1 
   89    92     1 
   89    93     1 
   89    94     1 
   90    92     1 
   90    93     1 
   90    94     1 
   91    98     1 
   91    99     1 
   91   100     1 
   92    95     1 
   92    96     1 
   92    97     1 
   93    95     1 
   93    96     1 
   93    97     1 
   94   101     1 
   94   102     1 
   94   103     1 
   95    98     1 
   95    99     1 
   95   100     1 
   96    98     1 
   96    99     1 
   96   100     1 
   97   104     1 
   97   105     1 
   97   106     1 
   98   101     1 
   98   102     1 
   98   103     1 
   99   101     1 
   99   102     1 
   99   103     1 
  100   107     1 
  100   108     1 
  101   104     1 
  101   105     1 
  101   106     1 
  102   104     1 
  102   105     1 
  102   106     1 
  103   109     1 
  103   110     1 
  104   107     1 
  104   108     1 
  105   107     1 
  105   108     1 
  106   111     1 
  106   112     1 
  106   113     1 
  107   109     1 
  107   110     1 
  108   114     1 
  108   115     1 
  109   111     1 
  109   112     1 
  109   113     1 
  110   116     1 
  110   117     1 
  111   114     1 
  111   115     1 
  112   114     1 
  112   115     1 
  113   118     1 
  113   119     1 
  113   120     1 
  114   116     1 
  114   117     1 
  115   121     1 
  115   122     1 
  115   123     1 
  116   118     1 
  116   119     1 
  116   120     1 
  117   124     1 
  117   125     1 
  117   126     1 
  118   121     1 
  118   122     1 
  118   123     1 
  119   121     1 
  119   122     1 
  119   123     1 
  120   127     1 
  120   128     1 
  120   129     1 
  121   124     1 
  121   125     1 
  121   126     1 
  122   124     1 
  122   125     1 
  122   126     1 
  123   130     1 
  123   131     1 
  123   132     1 
  124   127     1 
  124   128     1 
  124   129     1 
  125   127     1 
  125   128     1 
  125   129     1 
  127   130     1 
  127   131     1 
  127   132     1 
  128   130     1 
  128   131     1 
  128   132     1 

[ angles ]
;  ai    aj    ak funct            c0            c1            c2            c3
    2     1     6     5 
    2     1    10     5 
    2     1    14     5 
    6     1    10     5 
    6     1    14     5 
   10     1    14     5 
    1     2     3     5 
    1     2     4     5 
    1     2     5     5 
    3     2     4     5 
    3     2     5     5 
    4     2     5     5 
    1     6     7     5 
    1     6     8     5 
    1     6     9     5 
    7     6     8     5 
    7     6     9     5 
    8     6     9     5 
    1    10    11     5 
    1    10    12     5 
    1    10    13     5 
   11    10    12     5 
   11    10    13     5 
   12    10    13     5 
    1    14    15     5 
    1    14    16     5 
    1    14    17     5 
   15    14    16     5 
   15    14    17     5 
   16    14    17     5 
   14    17    18     5 
   14    17    19     5 
   14    17    23     5 
   18    17    19     5 
   18    17    23     5 
   19    17    23     5 
   21    20    22     5 
   21    20    23     5 
   21    20    24     5 
   22    20    23     5 
   22    20    24     5 
   23    20    24     5 
   17    23    20     5 
   20    24    25     5 
   24    25    26     5 
   24    25    27     5 
   24    25    28     5 
   26    25    27     5 
   26    25    28     5 
   27    25    28     5 
   25    28    29     5 
   25    28    30     5 
   25    28    36     5 
   29    28    30     5 
   29    28    36     5 
   30    28    36     5 
   28    30    31     5 
   30    31    32     5 
   30    31    33     5 
   32    31    33     5 
   31    33    34     5 
   31    33    35     5 
   31    33    45     5 
   34    33    35     5 
   34    33    45     5 
   35    33    45     5 
   28    36    37     5 
   28    36    38     5 
   28    36    39     5 
   37    36    38     5 
   37    36    39     5 
   38    36    39     5 
   36    39    40     5 
   39    40    41     5 
   39    40    42     5 
   41    40    42     5 
   40    42    43     5 
   40    42    44     5 
   40    42    88     5 
   43    42    44     5 
   43    42    88     5 
   44    42    88     5 
   33    45    46     5 
   33    45    47     5 
   33    45    48     5 
   46    45    47     5 
   46    45    48     5 
   47    45    48     5 
   45    48    49     5 
   45    48    50     5 
   45    48    51     5 
   49    48    50     5 
   49    48    51     5 
   50    48    51     5 
   48    51    52     5 
   48    51    53     5 
   48    51    54     5 
   52    51    53     5 
   52    51    54     5 
   53    51    54     5 
   51    54    55     5 
   51    54    56     5 
   51    54    57     5 
   55    54    56     5 
   55    54    57     5 
   56    54    57     5 
   54    57    58     5 
   54    57    59     5 
   54    57    60     5 
   58    57    59     5 
   58    57    60     5 
   59    57    60     5 
   57    60    61     5 
   57    60    62     5 
   57    60    63     5 
   61    60    62     5 
   61    60    63     5 
   62    60    63     5 
   60    63    64     5 
   60    63    65     5 
   64    63    65     5 
   63    65    66     5 
   63    65    67     5 
   66    65    67     5 
   65    67    68     5 
   65    67    69     5 
   65    67    70     5 
   68    67    69     5 
   68    67    70     5 
   69    67    70     5 
   67    70    71     5 
   67    70    72     5 
   71    70    72     5 
   70    72    73     5 
   70    72    74     5 
   73    72    74     5 
   72    74    75     5 
   72    74    76     5 
   72    74    77     5 
   75    74    76     5 
   75    74    77     5 
   76    74    77     5 
   74    77    78     5 
   74    77    79     5 
   78    77    79     5 
   77    79    80     5 
   77    79    81     5 
   80    79    81     5 
   79    81    82     5 
   79    81    83     5 
   79    81    84     5 
   82    81    83     5 
   82    81    84     5 
   83    81    84     5 
   81    84    85     5 
   81    84    86     5 
   81    84    87     5 
   85    84    86     5 
   85    84    87     5 
   86    84    87     5 
   42    88    89     5 
   42    88    90     5 
   42    88    91     5 
   89    88    90     5 
   89    88    91     5 
   90    88    91     5 
   88    91    92     5 
   88    91    93     5 
   88    91    94     5 
   92    91    93     5 
   92    91    94     5 
   93    91    94     5 
   91    94    95     5 
   91    94    96     5 
   91    94    97     5 
   95    94    96     5 
   95    94    97     5 
   96    94    97     5 
   94    97    98     5 
   94    97    99     5 
   94    97   100     5 
   98    97    99     5 
   98    97   100     5 
   99    97   100     5 
   97   100   101     5 
   97   100   102     5 
   97   100   103     5 
  101   100   102     5 
  101   100   103     5 
  102   100   103     5 
  100   103   104     5 
  100   103   105     5 
  100   103   106     5 
  104   103   105     5 
  104   103   106     5 
  105   103   106     5 
  103   106   107     5 
  103   106   108     5 
  107   106   108     5 
  106   108   109     5 
  106   108   110     5 
  109   108   110     5 
  108   110   111     5 
  108   110   112     5 
  108   110   113     5 
  111   110   112     5 
  111   110   113     5 
  112   110   113     5 
  110   113   114     5 
  110   113   115     5 
  114   113   115     5 
  113   115   116     5 
  113   115   117     5 
  116   115   117     5 
  115   117   118     5 
  115   117   119     5 
  115   117   120     5 
  118   117   119     5 
  118   117   120     5 
  119   117   120     5 
  117   120   121     5 
  117   120   122     5 
  117   120   123     5 
  121   120   122     5 
  121   120   123     5 
  122   120   123     5 
  120   123   124     5 
  120   123   125     5 
  120   123   126     5 
  124   123   125     5 
  124   123   126     5 
  125   123   126     5 
  123   126   127     5 
  123   126   128     5 
  123   126   129     5 
  127   126   128     5 
  127   126   129     5 
  128   126   129     5 
  126   129   130     5 
  126   129   131     5 
  126   129   132     5 
  130   129   131     5 
  130   129   132     5 
  131   129   132     5 

[ dihedrals ]
;  ai    aj    ak    al funct            c0            c1            c2            c3            c4            c5
    6     1     2     3     9 
    6     1     2     4     9 
    6     1     2     5     9 
   10     1     2     3     9 
   10     1     2     4     9 
   10     1     2     5     9 
   14     1     2     3     9 
   14     1     2     4     9 
   14     1     2     5     9 
    2     1     6     7     9 
    2     1     6     8     9 
    2     1     6     9     9 
   10     1     6     7     9 
   10     1     6     8     9 
   10     1     6     9     9 
   14     1     6     7     9 
   14     1     6     8     9 
   14     1     6     9     9 
    2     1    10    11     9 
    2     1    10    12     9 
    2     1    10    13     9 
    6     1    10    11     9 
    6     1    10    12     9 
    6     1    10    13     9 
   14     1    10    11     9 
   14     1    10    12     9 
   14     1    10    13     9 
    2     1    14    15     9 
    2     1    14    16     9 
    2     1    14    17     9 
    6     1    14    15     9 
    6     1    14    16     9 
    6     1    14    17     9 
   10     1    14    15     9 
   10     1    14    16     9 
   10     1    14    17     9 
    1    14    17    18     9 
    1    14    17    19     9 
    1    14    17    23     9 
   15    14    17    18     9 
   15    14    17    19     9 
   15    14    17    23     9 
   16    14    17    18     9 
   16    14    17    19     9 
   16    14    17    23     9 
   14    17    23    20     9 
   18    17    23    20     9 
   19    17    23    20     9 
   21    20    23    17     9 
   22    20    23    17     9 
   24    20    23    17     9 
   21    20    24    25     9 
   22    20    24    25     9 
   23    20    24    25     9 
   20    24    25    26     9 
   20    24    25    27     9 
   20    24    25    28     9 
   24    25    28    29     9 
   24    25    28    30     9 
   24    25    28    36     9 
   26    25    28    29     9 
   26    25    28    30     9 
   26    25    28    36     9 
   27    25    28    29     9 
   27    25    28    30     9 
   27    25    28    36     9 
   25    28    30    31     9 
   29    28    30    31     9 
   36    28    30    31     9 
   25    28    36    37     9 
   25    28    36    38     9 
   25    28    36    39     9 
   29    28    36    37     9 
   29    28    36    38     9 
   29    28    36    39     9 
   30    28    36    37     9 
   30    28    36    38     9 
   30    28    36    39     9 
   28    30    31    32     9 
   28    30    31    33     9 
   30    31    33    34     9 
   30    31    33    35     9 
   30    31    33    45     9 
   32    31    33    34     9 
   32    31    33    35     9 
   32    31    33    45     9 
   31    33    45    46     9 
   31    33    45    47     9 
   31    33    45    48     9 
   34    33    45    46     9 
   34    33    45    47     9 
   34    33    45    48     9 
   35    33    45    46     9 
   35    33    45    47     9 
   35    33    45    48     9 
   28    36    39    40     9 
   37    36    39    40     9 
   38    36    39    40     9 
   36    39    40    41     9 
   36    39    40    42     9 
   39    40    42    43     9 
   39    40    42    44     9 
   39    40    42    88     9 
   41    40    42    43     9 
   41    40    42    44     9 
   41    40    42    88     9 
   40    42    88    89     9 
   40    42    88    90     9 
   40    42    88    91     9 
   43    42    88    89     9 
   43    42    88    90     9 
   43    42    88    91     9 
   44    42    88    89     9 
   44    42    88    90     9 
   44    42    88    91     9 
   33    45    48    49     9 
   33    45    48    50     9 
   33    45    48    51     9 
   46    45    48    49     9 
   46    45    48    50     9 
   46    45    48    51     9 
   47    45    48    49     9 
   47    45    48    50     9 
   47    45    48    51     9 
   45    48    51    52     9 
   45    48    51    53     9 
   45    48    51    54     9 
   49    48    51    52     9 
   49    48    51    53     9 
   49    48    51    54     9 
   50    48    51    52     9 
   50    48    51    53     9 
   50    48    51    54     9 
   48    51    54    55     9 
   48    51    54    56     9 
   48    51    54    57     9 
   52    51    54    55     9 
   52    51    54    56     9 
   52    51    54    57     9 
   53    51    54    55     9 
   53    51    54    56     9 
   53    51    54    57     9 
   51    54    57    58     9 
   51    54    57    59     9 
   51    54    57    60     9 
   55    54    57    58     9 
   55    54    57    59     9 
   55    54    57    60     9 
   56    54    57    58     9 
   56    54    57    59     9 
   56    54    57    60     9 
   54    57    60    61     9 
   54    57    60    62     9 
   54    57    60    63     9 
   58    57    60    61     9 
   58    57    60    62     9 
   58    57    60    63     9 
   59    57    60    61     9 
   59    57    60    62     9 
   59    57    60    63     9 
   57    60    63    64     9 
   57    60    63    65     9 
   61    60    63    64     9 
   61    60    63    65     9 
   62    60    63    64     9 
   62    60    63    65     9 
   60    63    65    66     9 
   60    63    65    67     9 
   64    63    65    66     9 
   64    63    65    67     9 
   63    65    67    68     9 
   63    65    67    69     9 
   63    65    67    70     9 
   66    65    67    68     9 
   66    65    67    69     9 
   66    65    67    70     9 
   65    67    70    71     9 
   65    67    70    72     9 
   68    67    70    71     9 
   68    67    70    72     9 
   69    67    70    71     9 
   69    67    70    72     9 
   67    70    72    73     9 
   67    70    72    74     9 
   71    70    72    73     9 
   71    70    72    74     9 
   70    72    74    75     9 
   70    72    74    76     9 
   70    72    74    77     9 
   73    72    74    75     9 
   73    72    74    76     9 
   73    72    74    77     9 
   72    74    77    78     9 
   72    74    77    79     9 
   75    74    77    78     9 
   75    74    77    79     9 
   76    74    77    78     9 
   76    74    77    79     9 
   74    77    79    80     9 
   74    77    79    81     9 
   78    77    79    80     9 
   78    77    79    81     9 
   77    79    81    82     9 
   77    79    81    83     9 
   77    79    81    84     9 
   80    79    81    82     9 
   80    79    81    83     9 
   80    79    81    84     9 
   79    81    84    85     9 
   79    81    84    86     9 
   79    81    84    87     9 
   82    81    84    85     9 
   82    81    84    86     9 
   82    81    84    87     9 
   83    81    84    85     9 
   83    81    84    86     9 
   83    81    84    87     9 
   42    88    91    92     9 
   42    88    91    93     9 
   42    88    91    94     9 
   89    88    91    92     9 
   89    88    91    93     9 
   89    88    91    94     9 
   90    88    91    92     9 
   90    88    91    93     9 
   90    88    91    94     9 
   88    91    94    95     9 
   88    91    94    96     9 
   88    91    94    97     9 
   92    91    94    95     9 
   92    91    94    96     9 
   92    91    94    97     9 
   93    91    94    95     9 
   93    91    94    96     9 
   93    91    94    97     9 
   91    94    97    98     9 
   91    94    97    99     9 
   91    94    97   100     9 
   95    94    97    98     9 
   95    94    97    99     9 
   95    94    97   100     9 
   96    94    97    98     9 
   96    94    97    99     9 
   96    94    97   100     9 
   94    97   100   101     9 
   94    97   100   102     9 
   94    97   100   103     9 
   98    97   100   101     9 
   98    97   100   102     9 
   98    97   100   103     9 
   99    97   100   101     9 
   99    97   100   102     9 
   99    97   100   103     9 
   97   100   103   104     9 
   97   100   103   105     9 
   97   100   103   106     9 
  101   100   103   104     9 
  101   100   103   105     9 
  101   100   103   106     9 
  102   100   103   104     9 
  102   100   103   105     9 
  102   100   103   106     9 
  100   103   106   107     9 
  100   103   106   108     9 
  104   103   106   107     9 
  104   103   106   108     9 
  105   103   106   107     9 
  105   103   106   108     9 
  103   106   108   109     9 
  103   106   108   110     9 
  107   106   108   109     9 
  107   106   108   110     9 
  106   108   110   111     9 
  106   108   110   112     9 
  106   108   110   113     9 
  109   108   110   111     9 
  109   108   110   112     9 
  109   108   110   113     9 
  108   110   113   114     9 
  108   110   113   115     9 
  111   110   113   114     9 
  111   110   113   115     9 
  112   110   113   114     9 
  112   110   113   115     9 
  110   113   115   116     9 
  110   113   115   117     9 
  114   113   115   116     9 
  114   113   115   117     9 
  113   115   117   118     9 
  113   115   117   119     9 
  113   115   117   120     9 
  116   115   117   118     9 
  116   115   117   119     9 
  116   115   117   120     9 
  115   117   120   121     9 
  115   117   120   122     9 
  115   117   120   123     9 
  118   117   120   121     9 
  118   117   120   122     9 
  118   117   120   123     9 
  119   117   120   121     9 
  119   117   120   122     9 
  119   117   120   123     9 
  117   120   123   124     9 
  117   120   123   125     9 
  117   120   123   126     9 
  121   120   123   124     9 
  121   120   123   125     9 
  121   120   123   126     9 
  122   120   123   124     9 
  122   120   123   125     9 
  122   120   123   126     9 
  120   123   126   127     9 
  120   123   126   128     9 
  120   123   126   129     9 
  124   123   126   127     9 
  124   123   126   128     9 
  124   123   126   129     9 
  125   123   126   127     9 
  125   123   126   128     9 
  125   123   126   129     9 
  123   126   129   130     9 
  123   126   129   131     9 
  123   126   129   132     9 
  127   126   129   130     9 
  127   126   129   131     9 
  127   126   129   132     9 
  128   126   129   130     9 
  128   126   129   131     9 
  128   126   129   132     9 

[ dihedrals ]
;  ai    aj    ak    al funct            c0            c1            c2            c3
   31    30    33    32     2 
   40    39    42    41     2 

; Include Position restraint file
#ifdef POSRES
#include "LFPC_posre.itp"
#endif

