;
;	File '../cg2at-ccd2md/database/fragments/martini_3-1_new_lipidome_charmm36/non_protein/DPEC/DPEC.top' was generated
;	By user: mztrxr (16752)
;	On host: srgwzze.scrtp.warwick.ac.uk
;	At date: Thu Jul 16 13:26:38 2026
;
;	This is a standalone topology file
;
;	Created by:
;	              :-) GROMACS - gmx pdb2gmx, 2025.4-conda_forge (-:
;	
;	Executable:   /storage/chem/lfsmgr/SRG/mambaforge/envs/gmx2025.4/bin.AVX2_256/gmx
;	Data prefix:  /storage/chem/lfsmgr/SRG/mambaforge/envs/gmx2025.4
;	Working dir:  /home/lifesci/mztrxr/Documents/CCD2MD/CCD2AT/add_molecules
;	Command line:
;	  gmx pdb2gmx -ff charmm36-ccd2md -water none -f ../../charmm-gui-lipids-sterols-detergents/dpec.pdb -i ../cg2at-ccd2md/database/fragments/martini_3-1_new_lipidome_charmm36/non_protein/DPEC/DPEC_posre.itp -p ../cg2at-ccd2md/database/fragments/martini_3-1_new_lipidome_charmm36/non_protein/DPEC/DPEC.top
;	Force field was read from current directory or a relative path - path added.
;

; Include forcefield parameters
#include "./charmm36-ccd2md.ff/forcefield.itp"

[ moleculetype ]
; Name            nrexcl
Other               3

[ atoms ]
;   nr       type  resnr residue  atom   cgnr     charge       mass  typeB    chargeB      massB
; residue   1 DPEC rtp DPEC q  0.0
     1        NTL      1   DPEC      N      1       -0.6     14.007
     2       CTL5      1   DPEC    C13      1      -0.35     12.011
     3         HL      1   DPEC   H13A      1       0.25      1.008
     4         HL      1   DPEC   H13B      1       0.25      1.008
     5         HL      1   DPEC   H13C      1       0.25      1.008
     6       CTL5      1   DPEC    C14      1      -0.35     12.011
     7         HL      1   DPEC   H14A      1       0.25      1.008
     8         HL      1   DPEC   H14B      1       0.25      1.008
     9         HL      1   DPEC   H14C      1       0.25      1.008
    10       CTL5      1   DPEC    C15      1      -0.35     12.011
    11         HL      1   DPEC   H15A      1       0.25      1.008
    12         HL      1   DPEC   H15B      1       0.25      1.008
    13         HL      1   DPEC   H15C      1       0.25      1.008
    14       CTL2      1   DPEC    C12      1       -0.1     12.011
    15         HL      1   DPEC   H12A      1       0.25      1.008
    16         HL      1   DPEC   H12B      1       0.25      1.008
    17       CTL2      1   DPEC    C11      2      -0.08     12.011
    18       HAL2      1   DPEC   H11A      2       0.09      1.008
    19       HAL2      1   DPEC   H11B      2       0.09      1.008
    20         PL      1   DPEC      P      2        1.5     30.974
    21        O2L      1   DPEC    O13      2      -0.78    15.9994
    22        O2L      1   DPEC    O14      2      -0.78    15.9994
    23       OSLP      1   DPEC    O11      2      -0.57    15.9994
    24       OSLP      1   DPEC    O12      2      -0.57    15.9994
    25       CTL2      1   DPEC     C1      2      -0.08     12.011
    26       HAL2      1   DPEC     HA      2       0.09      1.008
    27       HAL2      1   DPEC     HB      2       0.09      1.008
    28       CTL1      1   DPEC     C2      3       0.13     12.011
    29       HAL1      1   DPEC     HS      3       0.01      1.008
    30      OG301      1   DPEC    O21      3      -0.56    15.9994
    31       CTL2      1   DPEC    C21      3        0.4     12.011
    32       HAL2      1   DPEC    H1R      3       0.01      1.008
    33       HAL2      1   DPEC    H1S      3       0.01      1.008
    34       CTL2      1   DPEC    C22      3      -0.18     12.011
    35       HAL2      1   DPEC    H2R      3       0.09      1.008
    36       HAL2      1   DPEC    H2S      3       0.09      1.008
    37       CTL2      1   DPEC     C3      4       0.08     12.011
    38       HAL2      1   DPEC     HX      4       0.02      1.008
    39       HAL2      1   DPEC     HY      4       0.02      1.008
    40      OG301      1   DPEC    O31      4      -0.56    15.9994
    41       CTL2      1   DPEC    C31      4        0.4     12.011
    42       HAL2      1   DPEC    H1X      4       0.02      1.008
    43       HAL2      1   DPEC    H1Y      4       0.02      1.008
    44       CTL2      1   DPEC    C32      4      -0.18     12.011
    45       HAL2      1   DPEC    H2X      4       0.09      1.008
    46       HAL2      1   DPEC    H2Y      4       0.09      1.008
    47       CTL2      1   DPEC    C23      5      -0.18     12.011
    48       HAL2      1   DPEC    H3R      5       0.09      1.008
    49       HAL2      1   DPEC    H3S      5       0.09      1.008
    50       CTL2      1   DPEC    C24      6      -0.18     12.011
    51       HAL2      1   DPEC    H4R      6       0.09      1.008
    52       HAL2      1   DPEC    H4S      6       0.09      1.008
    53       CTL2      1   DPEC    C25      7      -0.18     12.011
    54       HAL2      1   DPEC    H5R      7       0.09      1.008
    55       HAL2      1   DPEC    H5S      7       0.09      1.008
    56       CTL2      1   DPEC    C26      8      -0.18     12.011
    57       HAL2      1   DPEC    H6R      8       0.09      1.008
    58       HAL2      1   DPEC    H6S      8       0.09      1.008
    59       CTL2      1   DPEC    C27      9      -0.18     12.011
    60       HAL2      1   DPEC    H7R      9       0.09      1.008
    61       HAL2      1   DPEC    H7S      9       0.09      1.008
    62       CTL2      1   DPEC    C28     10      -0.18     12.011
    63       HAL2      1   DPEC    H8R     10       0.09      1.008
    64       HAL2      1   DPEC    H8S     10       0.09      1.008
    65       CTL2      1   DPEC    C29     11      -0.18     12.011
    66       HAL2      1   DPEC    H9R     11       0.09      1.008
    67       HAL2      1   DPEC    H9S     11       0.09      1.008
    68       CTL2      1   DPEC   C210     12      -0.18     12.011
    69       HAL2      1   DPEC   H10R     12       0.09      1.008
    70       HAL2      1   DPEC   H10S     12       0.09      1.008
    71       CTL2      1   DPEC   C211     13      -0.18     12.011
    72       HAL2      1   DPEC   H11R     13       0.09      1.008
    73       HAL2      1   DPEC   H11S     13       0.09      1.008
    74       CTL2      1   DPEC   C212     14      -0.18     12.011
    75       HAL2      1   DPEC   H12R     14       0.09      1.008
    76       HAL2      1   DPEC   H12S     14       0.09      1.008
    77       CTL2      1   DPEC   C213     15      -0.18     12.011
    78       HAL2      1   DPEC   H13R     15       0.09      1.008
    79       HAL2      1   DPEC   H13S     15       0.09      1.008
    80       CTL2      1   DPEC   C214     16      -0.18     12.011
    81       HAL2      1   DPEC   H14R     16       0.09      1.008
    82       HAL2      1   DPEC   H14S     16       0.09      1.008
    83       CTL2      1   DPEC   C215     17      -0.18     12.011
    84       HAL2      1   DPEC   H15R     17       0.09      1.008
    85       HAL2      1   DPEC   H15S     17       0.09      1.008
    86       CTL3      1   DPEC   C216     18      -0.27     12.011
    87       HAL3      1   DPEC   H16R     18       0.09      1.008
    88       HAL3      1   DPEC   H16S     18       0.09      1.008
    89       HAL3      1   DPEC   H16T     18       0.09      1.008
    90       CTL2      1   DPEC    C33     19      -0.18     12.011
    91       HAL2      1   DPEC    H3X     19       0.09      1.008
    92       HAL2      1   DPEC    H3Y     19       0.09      1.008
    93       CTL2      1   DPEC    C34     20      -0.18     12.011
    94       HAL2      1   DPEC    H4X     20       0.09      1.008
    95       HAL2      1   DPEC    H4Y     20       0.09      1.008
    96       CTL2      1   DPEC    C35     21      -0.18     12.011
    97       HAL2      1   DPEC    H5X     21       0.09      1.008
    98       HAL2      1   DPEC    H5Y     21       0.09      1.008
    99       CTL2      1   DPEC    C36     22      -0.18     12.011
   100       HAL2      1   DPEC    H6X     22       0.09      1.008
   101       HAL2      1   DPEC    H6Y     22       0.09      1.008
   102       CTL2      1   DPEC    C37     23      -0.18     12.011
   103       HAL2      1   DPEC    H7X     23       0.09      1.008
   104       HAL2      1   DPEC    H7Y     23       0.09      1.008
   105       CTL2      1   DPEC    C38     24      -0.18     12.011
   106       HAL2      1   DPEC    H8X     24       0.09      1.008
   107       HAL2      1   DPEC    H8Y     24       0.09      1.008
   108       CTL2      1   DPEC    C39     25      -0.18     12.011
   109       HAL2      1   DPEC    H9X     25       0.09      1.008
   110       HAL2      1   DPEC    H9Y     25       0.09      1.008
   111       CTL2      1   DPEC   C310     26      -0.18     12.011
   112       HAL2      1   DPEC   H10X     26       0.09      1.008
   113       HAL2      1   DPEC   H10Y     26       0.09      1.008
   114       CTL2      1   DPEC   C311     27      -0.18     12.011
   115       HAL2      1   DPEC   H11X     27       0.09      1.008
   116       HAL2      1   DPEC   H11Y     27       0.09      1.008
   117       CTL2      1   DPEC   C312     28      -0.18     12.011
   118       HAL2      1   DPEC   H12X     28       0.09      1.008
   119       HAL2      1   DPEC   H12Y     28       0.09      1.008
   120       CTL2      1   DPEC   C313     29      -0.18     12.011
   121       HAL2      1   DPEC   H13X     29       0.09      1.008
   122       HAL2      1   DPEC   H13Y     29       0.09      1.008
   123       CTL2      1   DPEC   C314     30      -0.18     12.011
   124       HAL2      1   DPEC   H14X     30       0.09      1.008
   125       HAL2      1   DPEC   H14Y     30       0.09      1.008
   126       CTL2      1   DPEC   C315     31      -0.18     12.011
   127       HAL2      1   DPEC   H15X     31       0.09      1.008
   128       HAL2      1   DPEC   H15Y     31       0.09      1.008
   129       CTL3      1   DPEC   C316     32      -0.27     12.011
   130       HAL3      1   DPEC   H16X     32       0.09      1.008
   131       HAL3      1   DPEC   H16Y     32       0.09      1.008
   132       HAL3      1   DPEC   H16Z     32       0.09      1.008   ; qtot 0

[ bonds ]
;  ai    aj funct            c0            c1            c2            c3
    1     2     1 
    1     6     1 
    1    10     1 
    1    14     1 
    2     3     1 
    2     4     1 
    2     5     1 
    6     7     1 
    6     8     1 
    6     9     1 
   10    11     1 
   10    12     1 
   10    13     1 
   14    15     1 
   14    16     1 
   14    17     1 
   17    18     1 
   17    19     1 
   17    24     1 
   20    21     1 
   20    22     1 
   20    23     1 
   20    24     1 
   23    25     1 
   25    26     1 
   25    27     1 
   25    28     1 
   28    29     1 
   28    30     1 
   28    37     1 
   30    31     1 
   31    32     1 
   31    33     1 
   31    34     1 
   34    35     1 
   34    36     1 
   34    47     1 
   37    38     1 
   37    39     1 
   37    40     1 
   40    41     1 
   41    42     1 
   41    43     1 
   41    44     1 
   44    45     1 
   44    46     1 
   44    90     1 
   47    48     1 
   47    49     1 
   47    50     1 
   50    51     1 
   50    52     1 
   50    53     1 
   53    54     1 
   53    55     1 
   53    56     1 
   56    57     1 
   56    58     1 
   56    59     1 
   59    60     1 
   59    61     1 
   59    62     1 
   62    63     1 
   62    64     1 
   62    65     1 
   65    66     1 
   65    67     1 
   65    68     1 
   68    69     1 
   68    70     1 
   68    71     1 
   71    72     1 
   71    73     1 
   71    74     1 
   74    75     1 
   74    76     1 
   74    77     1 
   77    78     1 
   77    79     1 
   77    80     1 
   80    81     1 
   80    82     1 
   80    83     1 
   83    84     1 
   83    85     1 
   83    86     1 
   86    87     1 
   86    88     1 
   86    89     1 
   90    91     1 
   90    92     1 
   90    93     1 
   93    94     1 
   93    95     1 
   93    96     1 
   96    97     1 
   96    98     1 
   96    99     1 
   99   100     1 
   99   101     1 
   99   102     1 
  102   103     1 
  102   104     1 
  102   105     1 
  105   106     1 
  105   107     1 
  105   108     1 
  108   109     1 
  108   110     1 
  108   111     1 
  111   112     1 
  111   113     1 
  111   114     1 
  114   115     1 
  114   116     1 
  114   117     1 
  117   118     1 
  117   119     1 
  117   120     1 
  120   121     1 
  120   122     1 
  120   123     1 
  123   124     1 
  123   125     1 
  123   126     1 
  126   127     1 
  126   128     1 
  126   129     1 
  129   130     1 
  129   131     1 
  129   132     1 

[ pairs ]
;  ai    aj funct            c0            c1            c2            c3
    1    18     1 
    1    19     1 
    1    24     1 
    2     7     1 
    2     8     1 
    2     9     1 
    2    11     1 
    2    12     1 
    2    13     1 
    2    15     1 
    2    16     1 
    2    17     1 
    3     6     1 
    3    10     1 
    3    14     1 
    4     6     1 
    4    10     1 
    4    14     1 
    5     6     1 
    5    10     1 
    5    14     1 
    6    11     1 
    6    12     1 
    6    13     1 
    6    15     1 
    6    16     1 
    6    17     1 
    7    10     1 
    7    14     1 
    8    10     1 
    8    14     1 
    9    10     1 
    9    14     1 
   10    15     1 
   10    16     1 
   10    17     1 
   11    14     1 
   12    14     1 
   13    14     1 
   14    20     1 
   15    18     1 
   15    19     1 
   15    24     1 
   16    18     1 
   16    19     1 
   16    24     1 
   17    21     1 
   17    22     1 
   17    23     1 
   18    20     1 
   19    20     1 
   20    26     1 
   20    27     1 
   20    28     1 
   21    25     1 
   22    25     1 
   23    29     1 
   23    30     1 
   23    37     1 
   24    25     1 
   25    31     1 
   25    38     1 
   25    39     1 
   25    40     1 
   26    29     1 
   26    30     1 
   26    37     1 
   27    29     1 
   27    30     1 
   27    37     1 
   28    32     1 
   28    33     1 
   28    34     1 
   28    41     1 
   29    31     1 
   29    38     1 
   29    39     1 
   29    40     1 
   30    35     1 
   30    36     1 
   30    38     1 
   30    39     1 
   30    40     1 
   30    47     1 
   31    37     1 
   31    48     1 
   31    49     1 
   31    50     1 
   32    35     1 
   32    36     1 
   32    47     1 
   33    35     1 
   33    36     1 
   33    47     1 
   34    51     1 
   34    52     1 
   34    53     1 
   35    48     1 
   35    49     1 
   35    50     1 
   36    48     1 
   36    49     1 
   36    50     1 
   37    42     1 
   37    43     1 
   37    44     1 
   38    41     1 
   39    41     1 
   40    45     1 
   40    46     1 
   40    90     1 
   41    91     1 
   41    92     1 
   41    93     1 
   42    45     1 
   42    46     1 
   42    90     1 
   43    45     1 
   43    46     1 
   43    90     1 
   44    94     1 
   44    95     1 
   44    96     1 
   45    91     1 
   45    92     1 
   45    93     1 
   46    91     1 
   46    92     1 
   46    93     1 
   47    54     1 
   47    55     1 
   47    56     1 
   48    51     1 
   48    52     1 
   48    53     1 
   49    51     1 
   49    52     1 
   49    53     1 
   50    57     1 
   50    58     1 
   50    59     1 
   51    54     1 
   51    55     1 
   51    56     1 
   52    54     1 
   52    55     1 
   52    56     1 
   53    60     1 
   53    61     1 
   53    62     1 
   54    57     1 
   54    58     1 
   54    59     1 
   55    57     1 
   55    58     1 
   55    59     1 
   56    63     1 
   56    64     1 
   56    65     1 
   57    60     1 
   57    61     1 
   57    62     1 
   58    60     1 
   58    61     1 
   58    62     1 
   59    66     1 
   59    67     1 
   59    68     1 
   60    63     1 
   60    64     1 
   60    65     1 
   61    63     1 
   61    64     1 
   61    65     1 
   62    69     1 
   62    70     1 
   62    71     1 
   63    66     1 
   63    67     1 
   63    68     1 
   64    66     1 
   64    67     1 
   64    68     1 
   65    72     1 
   65    73     1 
   65    74     1 
   66    69     1 
   66    70     1 
   66    71     1 
   67    69     1 
   67    70     1 
   67    71     1 
   68    75     1 
   68    76     1 
   68    77     1 
   69    72     1 
   69    73     1 
   69    74     1 
   70    72     1 
   70    73     1 
   70    74     1 
   71    78     1 
   71    79     1 
   71    80     1 
   72    75     1 
   72    76     1 
   72    77     1 
   73    75     1 
   73    76     1 
   73    77     1 
   74    81     1 
   74    82     1 
   74    83     1 
   75    78     1 
   75    79     1 
   75    80     1 
   76    78     1 
   76    79     1 
   76    80     1 
   77    84     1 
   77    85     1 
   77    86     1 
   78    81     1 
   78    82     1 
   78    83     1 
   79    81     1 
   79    82     1 
   79    83     1 
   80    87     1 
   80    88     1 
   80    89     1 
   81    84     1 
   81    85     1 
   81    86     1 
   82    84     1 
   82    85     1 
   82    86     1 
   84    87     1 
   84    88     1 
   84    89     1 
   85    87     1 
   85    88     1 
   85    89     1 
   90    97     1 
   90    98     1 
   90    99     1 
   91    94     1 
   91    95     1 
   91    96     1 
   92    94     1 
   92    95     1 
   92    96     1 
   93   100     1 
   93   101     1 
   93   102     1 
   94    97     1 
   94    98     1 
   94    99     1 
   95    97     1 
   95    98     1 
   95    99     1 
   96   103     1 
   96   104     1 
   96   105     1 
   97   100     1 
   97   101     1 
   97   102     1 
   98   100     1 
   98   101     1 
   98   102     1 
   99   106     1 
   99   107     1 
   99   108     1 
  100   103     1 
  100   104     1 
  100   105     1 
  101   103     1 
  101   104     1 
  101   105     1 
  102   109     1 
  102   110     1 
  102   111     1 
  103   106     1 
  103   107     1 
  103   108     1 
  104   106     1 
  104   107     1 
  104   108     1 
  105   112     1 
  105   113     1 
  105   114     1 
  106   109     1 
  106   110     1 
  106   111     1 
  107   109     1 
  107   110     1 
  107   111     1 
  108   115     1 
  108   116     1 
  108   117     1 
  109   112     1 
  109   113     1 
  109   114     1 
  110   112     1 
  110   113     1 
  110   114     1 
  111   118     1 
  111   119     1 
  111   120     1 
  112   115     1 
  112   116     1 
  112   117     1 
  113   115     1 
  113   116     1 
  113   117     1 
  114   121     1 
  114   122     1 
  114   123     1 
  115   118     1 
  115   119     1 
  115   120     1 
  116   118     1 
  116   119     1 
  116   120     1 
  117   124     1 
  117   125     1 
  117   126     1 
  118   121     1 
  118   122     1 
  118   123     1 
  119   121     1 
  119   122     1 
  119   123     1 
  120   127     1 
  120   128     1 
  120   129     1 
  121   124     1 
  121   125     1 
  121   126     1 
  122   124     1 
  122   125     1 
  122   126     1 
  123   130     1 
  123   131     1 
  123   132     1 
  124   127     1 
  124   128     1 
  124   129     1 
  125   127     1 
  125   128     1 
  125   129     1 
  127   130     1 
  127   131     1 
  127   132     1 
  128   130     1 
  128   131     1 
  128   132     1 

[ angles ]
;  ai    aj    ak funct            c0            c1            c2            c3
    2     1     6     5 
    2     1    10     5 
    2     1    14     5 
    6     1    10     5 
    6     1    14     5 
   10     1    14     5 
    1     2     3     5 
    1     2     4     5 
    1     2     5     5 
    3     2     4     5 
    3     2     5     5 
    4     2     5     5 
    1     6     7     5 
    1     6     8     5 
    1     6     9     5 
    7     6     8     5 
    7     6     9     5 
    8     6     9     5 
    1    10    11     5 
    1    10    12     5 
    1    10    13     5 
   11    10    12     5 
   11    10    13     5 
   12    10    13     5 
    1    14    15     5 
    1    14    16     5 
    1    14    17     5 
   15    14    16     5 
   15    14    17     5 
   16    14    17     5 
   14    17    18     5 
   14    17    19     5 
   14    17    24     5 
   18    17    19     5 
   18    17    24     5 
   19    17    24     5 
   21    20    22     5 
   21    20    23     5 
   21    20    24     5 
   22    20    23     5 
   22    20    24     5 
   23    20    24     5 
   20    23    25     5 
   17    24    20     5 
   23    25    26     5 
   23    25    27     5 
   23    25    28     5 
   26    25    27     5 
   26    25    28     5 
   27    25    28     5 
   25    28    29     5 
   25    28    30     5 
   25    28    37     5 
   29    28    30     5 
   29    28    37     5 
   30    28    37     5 
   28    30    31     5 
   30    31    32     5 
   30    31    33     5 
   30    31    34     5 
   32    31    33     5 
   32    31    34     5 
   33    31    34     5 
   31    34    35     5 
   31    34    36     5 
   31    34    47     5 
   35    34    36     5 
   35    34    47     5 
   36    34    47     5 
   28    37    38     5 
   28    37    39     5 
   28    37    40     5 
   38    37    39     5 
   38    37    40     5 
   39    37    40     5 
   37    40    41     5 
   40    41    42     5 
   40    41    43     5 
   40    41    44     5 
   42    41    43     5 
   42    41    44     5 
   43    41    44     5 
   41    44    45     5 
   41    44    46     5 
   41    44    90     5 
   45    44    46     5 
   45    44    90     5 
   46    44    90     5 
   34    47    48     5 
   34    47    49     5 
   34    47    50     5 
   48    47    49     5 
   48    47    50     5 
   49    47    50     5 
   47    50    51     5 
   47    50    52     5 
   47    50    53     5 
   51    50    52     5 
   51    50    53     5 
   52    50    53     5 
   50    53    54     5 
   50    53    55     5 
   50    53    56     5 
   54    53    55     5 
   54    53    56     5 
   55    53    56     5 
   53    56    57     5 
   53    56    58     5 
   53    56    59     5 
   57    56    58     5 
   57    56    59     5 
   58    56    59     5 
   56    59    60     5 
   56    59    61     5 
   56    59    62     5 
   60    59    61     5 
   60    59    62     5 
   61    59    62     5 
   59    62    63     5 
   59    62    64     5 
   59    62    65     5 
   63    62    64     5 
   63    62    65     5 
   64    62    65     5 
   62    65    66     5 
   62    65    67     5 
   62    65    68     5 
   66    65    67     5 
   66    65    68     5 
   67    65    68     5 
   65    68    69     5 
   65    68    70     5 
   65    68    71     5 
   69    68    70     5 
   69    68    71     5 
   70    68    71     5 
   68    71    72     5 
   68    71    73     5 
   68    71    74     5 
   72    71    73     5 
   72    71    74     5 
   73    71    74     5 
   71    74    75     5 
   71    74    76     5 
   71    74    77     5 
   75    74    76     5 
   75    74    77     5 
   76    74    77     5 
   74    77    78     5 
   74    77    79     5 
   74    77    80     5 
   78    77    79     5 
   78    77    80     5 
   79    77    80     5 
   77    80    81     5 
   77    80    82     5 
   77    80    83     5 
   81    80    82     5 
   81    80    83     5 
   82    80    83     5 
   80    83    84     5 
   80    83    85     5 
   80    83    86     5 
   84    83    85     5 
   84    83    86     5 
   85    83    86     5 
   83    86    87     5 
   83    86    88     5 
   83    86    89     5 
   87    86    88     5 
   87    86    89     5 
   88    86    89     5 
   44    90    91     5 
   44    90    92     5 
   44    90    93     5 
   91    90    92     5 
   91    90    93     5 
   92    90    93     5 
   90    93    94     5 
   90    93    95     5 
   90    93    96     5 
   94    93    95     5 
   94    93    96     5 
   95    93    96     5 
   93    96    97     5 
   93    96    98     5 
   93    96    99     5 
   97    96    98     5 
   97    96    99     5 
   98    96    99     5 
   96    99   100     5 
   96    99   101     5 
   96    99   102     5 
  100    99   101     5 
  100    99   102     5 
  101    99   102     5 
   99   102   103     5 
   99   102   104     5 
   99   102   105     5 
  103   102   104     5 
  103   102   105     5 
  104   102   105     5 
  102   105   106     5 
  102   105   107     5 
  102   105   108     5 
  106   105   107     5 
  106   105   108     5 
  107   105   108     5 
  105   108   109     5 
  105   108   110     5 
  105   108   111     5 
  109   108   110     5 
  109   108   111     5 
  110   108   111     5 
  108   111   112     5 
  108   111   113     5 
  108   111   114     5 
  112   111   113     5 
  112   111   114     5 
  113   111   114     5 
  111   114   115     5 
  111   114   116     5 
  111   114   117     5 
  115   114   116     5 
  115   114   117     5 
  116   114   117     5 
  114   117   118     5 
  114   117   119     5 
  114   117   120     5 
  118   117   119     5 
  118   117   120     5 
  119   117   120     5 
  117   120   121     5 
  117   120   122     5 
  117   120   123     5 
  121   120   122     5 
  121   120   123     5 
  122   120   123     5 
  120   123   124     5 
  120   123   125     5 
  120   123   126     5 
  124   123   125     5 
  124   123   126     5 
  125   123   126     5 
  123   126   127     5 
  123   126   128     5 
  123   126   129     5 
  127   126   128     5 
  127   126   129     5 
  128   126   129     5 
  126   129   130     5 
  126   129   131     5 
  126   129   132     5 
  130   129   131     5 
  130   129   132     5 
  131   129   132     5 

[ dihedrals ]
;  ai    aj    ak    al funct            c0            c1            c2            c3            c4            c5
    6     1     2     3     9 
    6     1     2     4     9 
    6     1     2     5     9 
   10     1     2     3     9 
   10     1     2     4     9 
   10     1     2     5     9 
   14     1     2     3     9 
   14     1     2     4     9 
   14     1     2     5     9 
    2     1     6     7     9 
    2     1     6     8     9 
    2     1     6     9     9 
   10     1     6     7     9 
   10     1     6     8     9 
   10     1     6     9     9 
   14     1     6     7     9 
   14     1     6     8     9 
   14     1     6     9     9 
    2     1    10    11     9 
    2     1    10    12     9 
    2     1    10    13     9 
    6     1    10    11     9 
    6     1    10    12     9 
    6     1    10    13     9 
   14     1    10    11     9 
   14     1    10    12     9 
   14     1    10    13     9 
    2     1    14    15     9 
    2     1    14    16     9 
    2     1    14    17     9 
    6     1    14    15     9 
    6     1    14    16     9 
    6     1    14    17     9 
   10     1    14    15     9 
   10     1    14    16     9 
   10     1    14    17     9 
    1    14    17    18     9 
    1    14    17    19     9 
    1    14    17    24     9 
   15    14    17    18     9 
   15    14    17    19     9 
   15    14    17    24     9 
   16    14    17    18     9 
   16    14    17    19     9 
   16    14    17    24     9 
   14    17    24    20     9 
   18    17    24    20     9 
   19    17    24    20     9 
   21    20    23    25     9 
   22    20    23    25     9 
   24    20    23    25     9 
   21    20    24    17     9 
   22    20    24    17     9 
   23    20    24    17     9 
   20    23    25    26     9 
   20    23    25    27     9 
   20    23    25    28     9 
   23    25    28    29     9 
   23    25    28    30     9 
   23    25    28    37     9 
   26    25    28    29     9 
   26    25    28    30     9 
   26    25    28    37     9 
   27    25    28    29     9 
   27    25    28    30     9 
   27    25    28    37     9 
   25    28    30    31     9 
   29    28    30    31     9 
   37    28    30    31     9 
   25    28    37    38     9 
   25    28    37    39     9 
   25    28    37    40     9 
   29    28    37    38     9 
   29    28    37    39     9 
   29    28    37    40     9 
   30    28    37    38     9 
   30    28    37    39     9 
   30    28    37    40     9 
   28    30    31    32     9 
   28    30    31    33     9 
   28    30    31    34     9 
   30    31    34    35     9 
   30    31    34    36     9 
   30    31    34    47     9 
   32    31    34    35     9 
   32    31    34    36     9 
   32    31    34    47     9 
   33    31    34    35     9 
   33    31    34    36     9 
   33    31    34    47     9 
   31    34    47    48     9 
   31    34    47    49     9 
   31    34    47    50     9 
   35    34    47    48     9 
   35    34    47    49     9 
   35    34    47    50     9 
   36    34    47    48     9 
   36    34    47    49     9 
   36    34    47    50     9 
   28    37    40    41     9 
   38    37    40    41     9 
   39    37    40    41     9 
   37    40    41    42     9 
   37    40    41    43     9 
   37    40    41    44     9 
   40    41    44    45     9 
   40    41    44    46     9 
   40    41    44    90     9 
   42    41    44    45     9 
   42    41    44    46     9 
   42    41    44    90     9 
   43    41    44    45     9 
   43    41    44    46     9 
   43    41    44    90     9 
   41    44    90    91     9 
   41    44    90    92     9 
   41    44    90    93     9 
   45    44    90    91     9 
   45    44    90    92     9 
   45    44    90    93     9 
   46    44    90    91     9 
   46    44    90    92     9 
   46    44    90    93     9 
   34    47    50    51     9 
   34    47    50    52     9 
   34    47    50    53     9 
   48    47    50    51     9 
   48    47    50    52     9 
   48    47    50    53     9 
   49    47    50    51     9 
   49    47    50    52     9 
   49    47    50    53     9 
   47    50    53    54     9 
   47    50    53    55     9 
   47    50    53    56     9 
   51    50    53    54     9 
   51    50    53    55     9 
   51    50    53    56     9 
   52    50    53    54     9 
   52    50    53    55     9 
   52    50    53    56     9 
   50    53    56    57     9 
   50    53    56    58     9 
   50    53    56    59     9 
   54    53    56    57     9 
   54    53    56    58     9 
   54    53    56    59     9 
   55    53    56    57     9 
   55    53    56    58     9 
   55    53    56    59     9 
   53    56    59    60     9 
   53    56    59    61     9 
   53    56    59    62     9 
   57    56    59    60     9 
   57    56    59    61     9 
   57    56    59    62     9 
   58    56    59    60     9 
   58    56    59    61     9 
   58    56    59    62     9 
   56    59    62    63     9 
   56    59    62    64     9 
   56    59    62    65     9 
   60    59    62    63     9 
   60    59    62    64     9 
   60    59    62    65     9 
   61    59    62    63     9 
   61    59    62    64     9 
   61    59    62    65     9 
   59    62    65    66     9 
   59    62    65    67     9 
   59    62    65    68     9 
   63    62    65    66     9 
   63    62    65    67     9 
   63    62    65    68     9 
   64    62    65    66     9 
   64    62    65    67     9 
   64    62    65    68     9 
   62    65    68    69     9 
   62    65    68    70     9 
   62    65    68    71     9 
   66    65    68    69     9 
   66    65    68    70     9 
   66    65    68    71     9 
   67    65    68    69     9 
   67    65    68    70     9 
   67    65    68    71     9 
   65    68    71    72     9 
   65    68    71    73     9 
   65    68    71    74     9 
   69    68    71    72     9 
   69    68    71    73     9 
   69    68    71    74     9 
   70    68    71    72     9 
   70    68    71    73     9 
   70    68    71    74     9 
   68    71    74    75     9 
   68    71    74    76     9 
   68    71    74    77     9 
   72    71    74    75     9 
   72    71    74    76     9 
   72    71    74    77     9 
   73    71    74    75     9 
   73    71    74    76     9 
   73    71    74    77     9 
   71    74    77    78     9 
   71    74    77    79     9 
   71    74    77    80     9 
   75    74    77    78     9 
   75    74    77    79     9 
   75    74    77    80     9 
   76    74    77    78     9 
   76    74    77    79     9 
   76    74    77    80     9 
   74    77    80    81     9 
   74    77    80    82     9 
   74    77    80    83     9 
   78    77    80    81     9 
   78    77    80    82     9 
   78    77    80    83     9 
   79    77    80    81     9 
   79    77    80    82     9 
   79    77    80    83     9 
   77    80    83    84     9 
   77    80    83    85     9 
   77    80    83    86     9 
   81    80    83    84     9 
   81    80    83    85     9 
   81    80    83    86     9 
   82    80    83    84     9 
   82    80    83    85     9 
   82    80    83    86     9 
   80    83    86    87     9 
   80    83    86    88     9 
   80    83    86    89     9 
   84    83    86    87     9 
   84    83    86    88     9 
   84    83    86    89     9 
   85    83    86    87     9 
   85    83    86    88     9 
   85    83    86    89     9 
   44    90    93    94     9 
   44    90    93    95     9 
   44    90    93    96     9 
   91    90    93    94     9 
   91    90    93    95     9 
   91    90    93    96     9 
   92    90    93    94     9 
   92    90    93    95     9 
   92    90    93    96     9 
   90    93    96    97     9 
   90    93    96    98     9 
   90    93    96    99     9 
   94    93    96    97     9 
   94    93    96    98     9 
   94    93    96    99     9 
   95    93    96    97     9 
   95    93    96    98     9 
   95    93    96    99     9 
   93    96    99   100     9 
   93    96    99   101     9 
   93    96    99   102     9 
   97    96    99   100     9 
   97    96    99   101     9 
   97    96    99   102     9 
   98    96    99   100     9 
   98    96    99   101     9 
   98    96    99   102     9 
   96    99   102   103     9 
   96    99   102   104     9 
   96    99   102   105     9 
  100    99   102   103     9 
  100    99   102   104     9 
  100    99   102   105     9 
  101    99   102   103     9 
  101    99   102   104     9 
  101    99   102   105     9 
   99   102   105   106     9 
   99   102   105   107     9 
   99   102   105   108     9 
  103   102   105   106     9 
  103   102   105   107     9 
  103   102   105   108     9 
  104   102   105   106     9 
  104   102   105   107     9 
  104   102   105   108     9 
  102   105   108   109     9 
  102   105   108   110     9 
  102   105   108   111     9 
  106   105   108   109     9 
  106   105   108   110     9 
  106   105   108   111     9 
  107   105   108   109     9 
  107   105   108   110     9 
  107   105   108   111     9 
  105   108   111   112     9 
  105   108   111   113     9 
  105   108   111   114     9 
  109   108   111   112     9 
  109   108   111   113     9 
  109   108   111   114     9 
  110   108   111   112     9 
  110   108   111   113     9 
  110   108   111   114     9 
  108   111   114   115     9 
  108   111   114   116     9 
  108   111   114   117     9 
  112   111   114   115     9 
  112   111   114   116     9 
  112   111   114   117     9 
  113   111   114   115     9 
  113   111   114   116     9 
  113   111   114   117     9 
  111   114   117   118     9 
  111   114   117   119     9 
  111   114   117   120     9 
  115   114   117   118     9 
  115   114   117   119     9 
  115   114   117   120     9 
  116   114   117   118     9 
  116   114   117   119     9 
  116   114   117   120     9 
  114   117   120   121     9 
  114   117   120   122     9 
  114   117   120   123     9 
  118   117   120   121     9 
  118   117   120   122     9 
  118   117   120   123     9 
  119   117   120   121     9 
  119   117   120   122     9 
  119   117   120   123     9 
  117   120   123   124     9 
  117   120   123   125     9 
  117   120   123   126     9 
  121   120   123   124     9 
  121   120   123   125     9 
  121   120   123   126     9 
  122   120   123   124     9 
  122   120   123   125     9 
  122   120   123   126     9 
  120   123   126   127     9 
  120   123   126   128     9 
  120   123   126   129     9 
  124   123   126   127     9 
  124   123   126   128     9 
  124   123   126   129     9 
  125   123   126   127     9 
  125   123   126   128     9 
  125   123   126   129     9 
  123   126   129   130     9 
  123   126   129   131     9 
  123   126   129   132     9 
  127   126   129   130     9 
  127   126   129   131     9 
  127   126   129   132     9 
  128   126   129   130     9 
  128   126   129   131     9 
  128   126   129   132     9 

; Include Position restraint file
#ifdef POSRES
#include "../cg2at-ccd2md/database/fragments/martini_3-1_new_lipidome_charmm36/non_protein/DPEC/DPEC_posre.itp"
#endif

[ system ]
; Name
Protein

[ molecules ]
; Compound        #mols
Other               1
