[ moleculetype ]
; Name            nrexcl
DMPA                3

[ atoms ]
;   nr       type  resnr residue  atom   cgnr     charge       mass  typeB    chargeB      massB
; residue   1 DMPA rtp DMPA q -1.0
     1         PL      1   DMPA      P      1        1.5     30.974
     2        O2L      1   DMPA    O13      1      -0.82    15.9994
     3        O2L      1   DMPA    O14      1      -0.82    15.9994
     4        OHL      1   DMPA    O12      1      -0.68    15.9994
     5        HOL      1   DMPA    H12      1       0.34      1.008
     6       OSLP      1   DMPA    O11      1      -0.62    15.9994
     7       CTL2      1   DMPA     C1      1      -0.08     12.011
     8       HAL2      1   DMPA     HA      1       0.09      1.008
     9       HAL2      1   DMPA     HB      1       0.09      1.008
    10       CTL1      1   DMPA     C2      2       0.17     12.011
    11       HAL1      1   DMPA     HS      2       0.09      1.008
    12        OSL      1   DMPA    O21      2      -0.49    15.9994
    13         CL      1   DMPA    C21      2        0.9     12.011
    14        OBL      1   DMPA    O22      2      -0.63    15.9994
    15       CTL2      1   DMPA    C22      2      -0.22     12.011
    16       HAL2      1   DMPA    H2R      2       0.09      1.008
    17       HAL2      1   DMPA    H2S      2       0.09      1.008
    18       CTL2      1   DMPA     C3      3       0.08     12.011
    19       HAL2      1   DMPA     HX      3       0.09      1.008
    20       HAL2      1   DMPA     HY      3       0.09      1.008
    21        OSL      1   DMPA    O31      3      -0.49    15.9994
    22         CL      1   DMPA    C31      3        0.9     12.011
    23        OBL      1   DMPA    O32      3      -0.63    15.9994
    24       CTL2      1   DMPA    C32      3      -0.22     12.011
    25       HAL2      1   DMPA    H2X      3       0.09      1.008
    26       HAL2      1   DMPA    H2Y      3       0.09      1.008
    27       CTL2      1   DMPA    C23      4      -0.18     12.011
    28       HAL2      1   DMPA    H3R      4       0.09      1.008
    29       HAL2      1   DMPA    H3S      4       0.09      1.008
    30       CTL2      1   DMPA    C24      5      -0.18     12.011
    31       HAL2      1   DMPA    H4R      5       0.09      1.008
    32       HAL2      1   DMPA    H4S      5       0.09      1.008
    33       CTL2      1   DMPA    C25      6      -0.18     12.011
    34       HAL2      1   DMPA    H5R      6       0.09      1.008
    35       HAL2      1   DMPA    H5S      6       0.09      1.008
    36       CTL2      1   DMPA    C26      7      -0.18     12.011
    37       HAL2      1   DMPA    H6R      7       0.09      1.008
    38       HAL2      1   DMPA    H6S      7       0.09      1.008
    39       CTL2      1   DMPA    C27      8      -0.18     12.011
    40       HAL2      1   DMPA    H7R      8       0.09      1.008
    41       HAL2      1   DMPA    H7S      8       0.09      1.008
    42       CTL2      1   DMPA    C28      9      -0.18     12.011
    43       HAL2      1   DMPA    H8R      9       0.09      1.008
    44       HAL2      1   DMPA    H8S      9       0.09      1.008
    45       CTL2      1   DMPA    C29     10      -0.18     12.011
    46       HAL2      1   DMPA    H9R     10       0.09      1.008
    47       HAL2      1   DMPA    H9S     10       0.09      1.008
    48       CTL2      1   DMPA   C210     11      -0.18     12.011
    49       HAL2      1   DMPA   H10R     11       0.09      1.008
    50       HAL2      1   DMPA   H10S     11       0.09      1.008
    51       CTL2      1   DMPA   C211     12      -0.18     12.011
    52       HAL2      1   DMPA   H11R     12       0.09      1.008
    53       HAL2      1   DMPA   H11S     12       0.09      1.008
    54       CTL2      1   DMPA   C212     13      -0.18     12.011
    55       HAL2      1   DMPA   H12R     13       0.09      1.008
    56       HAL2      1   DMPA   H12S     13       0.09      1.008
    57       CTL2      1   DMPA   C213     14      -0.18     12.011
    58       HAL2      1   DMPA   H13R     14       0.09      1.008
    59       HAL2      1   DMPA   H13S     14       0.09      1.008
    60       CTL3      1   DMPA   C214     15      -0.27     12.011
    61       HAL3      1   DMPA   H14R     15       0.09      1.008
    62       HAL3      1   DMPA   H14S     15       0.09      1.008
    63       HAL3      1   DMPA   H14T     15       0.09      1.008
    64       CTL2      1   DMPA    C33     16      -0.18     12.011
    65       HAL2      1   DMPA    H3X     16       0.09      1.008
    66       HAL2      1   DMPA    H3Y     16       0.09      1.008
    67       CTL2      1   DMPA    C34     17      -0.18     12.011
    68       HAL2      1   DMPA    H4X     17       0.09      1.008
    69       HAL2      1   DMPA    H4Y     17       0.09      1.008
    70       CTL2      1   DMPA    C35     18      -0.18     12.011
    71       HAL2      1   DMPA    H5X     18       0.09      1.008
    72       HAL2      1   DMPA    H5Y     18       0.09      1.008
    73       CTL2      1   DMPA    C36     19      -0.18     12.011
    74       HAL2      1   DMPA    H6X     19       0.09      1.008
    75       HAL2      1   DMPA    H6Y     19       0.09      1.008
    76       CTL2      1   DMPA    C37     20      -0.18     12.011
    77       HAL2      1   DMPA    H7X     20       0.09      1.008
    78       HAL2      1   DMPA    H7Y     20       0.09      1.008
    79       CTL2      1   DMPA    C38     21      -0.18     12.011
    80       HAL2      1   DMPA    H8X     21       0.09      1.008
    81       HAL2      1   DMPA    H8Y     21       0.09      1.008
    82       CTL2      1   DMPA    C39     22      -0.18     12.011
    83       HAL2      1   DMPA    H9X     22       0.09      1.008
    84       HAL2      1   DMPA    H9Y     22       0.09      1.008
    85       CTL2      1   DMPA   C310     23      -0.18     12.011
    86       HAL2      1   DMPA   H10X     23       0.09      1.008
    87       HAL2      1   DMPA   H10Y     23       0.09      1.008
    88       CTL2      1   DMPA   C311     24      -0.18     12.011
    89       HAL2      1   DMPA   H11X     24       0.09      1.008
    90       HAL2      1   DMPA   H11Y     24       0.09      1.008
    91       CTL2      1   DMPA   C312     25      -0.18     12.011
    92       HAL2      1   DMPA   H12X     25       0.09      1.008
    93       HAL2      1   DMPA   H12Y     25       0.09      1.008
    94       CTL2      1   DMPA   C313     26      -0.18     12.011
    95       HAL2      1   DMPA   H13X     26       0.09      1.008
    96       HAL2      1   DMPA   H13Y     26       0.09      1.008
    97       CTL3      1   DMPA   C314     27      -0.27     12.011
    98       HAL3      1   DMPA   H14X     27       0.09      1.008
    99       HAL3      1   DMPA   H14Y     27       0.09      1.008
   100       HAL3      1   DMPA   H14Z     27       0.09      1.008   ; qtot -1

[ bonds ]
;  ai    aj funct            c0            c1            c2            c3
    1     2     1 
    1     3     1 
    1     4     1 
    1     6     1 
    4     5     1 
    6     7     1 
    7     8     1 
    7     9     1 
    7    10     1 
   10    11     1 
   10    12     1 
   10    18     1 
   12    13     1 
   13    14     1 
   13    15     1 
   15    16     1 
   15    17     1 
   15    27     1 
   18    19     1 
   18    20     1 
   18    21     1 
   21    22     1 
   22    23     1 
   22    24     1 
   24    25     1 
   24    26     1 
   24    64     1 
   27    28     1 
   27    29     1 
   27    30     1 
   30    31     1 
   30    32     1 
   30    33     1 
   33    34     1 
   33    35     1 
   33    36     1 
   36    37     1 
   36    38     1 
   36    39     1 
   39    40     1 
   39    41     1 
   39    42     1 
   42    43     1 
   42    44     1 
   42    45     1 
   45    46     1 
   45    47     1 
   45    48     1 
   48    49     1 
   48    50     1 
   48    51     1 
   51    52     1 
   51    53     1 
   51    54     1 
   54    55     1 
   54    56     1 
   54    57     1 
   57    58     1 
   57    59     1 
   57    60     1 
   60    61     1 
   60    62     1 
   60    63     1 
   64    65     1 
   64    66     1 
   64    67     1 
   67    68     1 
   67    69     1 
   67    70     1 
   70    71     1 
   70    72     1 
   70    73     1 
   73    74     1 
   73    75     1 
   73    76     1 
   76    77     1 
   76    78     1 
   76    79     1 
   79    80     1 
   79    81     1 
   79    82     1 
   82    83     1 
   82    84     1 
   82    85     1 
   85    86     1 
   85    87     1 
   85    88     1 
   88    89     1 
   88    90     1 
   88    91     1 
   91    92     1 
   91    93     1 
   91    94     1 
   94    95     1 
   94    96     1 
   94    97     1 
   97    98     1 
   97    99     1 
   97   100     1 

[ pairs ]
;  ai    aj funct            c0            c1            c2            c3
    1     8     1 
    1     9     1 
    1    10     1 
    2     5     1 
    2     7     1 
    3     5     1 
    3     7     1 
    4     7     1 
    5     6     1 
    6    11     1 
    6    12     1 
    6    18     1 
    7    13     1 
    7    19     1 
    7    20     1 
    7    21     1 
    8    11     1 
    8    12     1 
    8    18     1 
    9    11     1 
    9    12     1 
    9    18     1 
   10    14     1 
   10    15     1 
   10    22     1 
   11    13     1 
   11    19     1 
   11    20     1 
   11    21     1 
   12    16     1 
   12    17     1 
   12    19     1 
   12    20     1 
   12    21     1 
   12    27     1 
   13    18     1 
   13    28     1 
   13    29     1 
   13    30     1 
   14    16     1 
   14    17     1 
   14    27     1 
   15    31     1 
   15    32     1 
   15    33     1 
   16    28     1 
   16    29     1 
   16    30     1 
   17    28     1 
   17    29     1 
   17    30     1 
   18    23     1 
   18    24     1 
   19    22     1 
   20    22     1 
   21    25     1 
   21    26     1 
   21    64     1 
   22    65     1 
   22    66     1 
   22    67     1 
   23    25     1 
   23    26     1 
   23    64     1 
   24    68     1 
   24    69     1 
   24    70     1 
   25    65     1 
   25    66     1 
   25    67     1 
   26    65     1 
   26    66     1 
   26    67     1 
   27    34     1 
   27    35     1 
   27    36     1 
   28    31     1 
   28    32     1 
   28    33     1 
   29    31     1 
   29    32     1 
   29    33     1 
   30    37     1 
   30    38     1 
   30    39     1 
   31    34     1 
   31    35     1 
   31    36     1 
   32    34     1 
   32    35     1 
   32    36     1 
   33    40     1 
   33    41     1 
   33    42     1 
   34    37     1 
   34    38     1 
   34    39     1 
   35    37     1 
   35    38     1 
   35    39     1 
   36    43     1 
   36    44     1 
   36    45     1 
   37    40     1 
   37    41     1 
   37    42     1 
   38    40     1 
   38    41     1 
   38    42     1 
   39    46     1 
   39    47     1 
   39    48     1 
   40    43     1 
   40    44     1 
   40    45     1 
   41    43     1 
   41    44     1 
   41    45     1 
   42    49     1 
   42    50     1 
   42    51     1 
   43    46     1 
   43    47     1 
   43    48     1 
   44    46     1 
   44    47     1 
   44    48     1 
   45    52     1 
   45    53     1 
   45    54     1 
   46    49     1 
   46    50     1 
   46    51     1 
   47    49     1 
   47    50     1 
   47    51     1 
   48    55     1 
   48    56     1 
   48    57     1 
   49    52     1 
   49    53     1 
   49    54     1 
   50    52     1 
   50    53     1 
   50    54     1 
   51    58     1 
   51    59     1 
   51    60     1 
   52    55     1 
   52    56     1 
   52    57     1 
   53    55     1 
   53    56     1 
   53    57     1 
   54    61     1 
   54    62     1 
   54    63     1 
   55    58     1 
   55    59     1 
   55    60     1 
   56    58     1 
   56    59     1 
   56    60     1 
   58    61     1 
   58    62     1 
   58    63     1 
   59    61     1 
   59    62     1 
   59    63     1 
   64    71     1 
   64    72     1 
   64    73     1 
   65    68     1 
   65    69     1 
   65    70     1 
   66    68     1 
   66    69     1 
   66    70     1 
   67    74     1 
   67    75     1 
   67    76     1 
   68    71     1 
   68    72     1 
   68    73     1 
   69    71     1 
   69    72     1 
   69    73     1 
   70    77     1 
   70    78     1 
   70    79     1 
   71    74     1 
   71    75     1 
   71    76     1 
   72    74     1 
   72    75     1 
   72    76     1 
   73    80     1 
   73    81     1 
   73    82     1 
   74    77     1 
   74    78     1 
   74    79     1 
   75    77     1 
   75    78     1 
   75    79     1 
   76    83     1 
   76    84     1 
   76    85     1 
   77    80     1 
   77    81     1 
   77    82     1 
   78    80     1 
   78    81     1 
   78    82     1 
   79    86     1 
   79    87     1 
   79    88     1 
   80    83     1 
   80    84     1 
   80    85     1 
   81    83     1 
   81    84     1 
   81    85     1 
   82    89     1 
   82    90     1 
   82    91     1 
   83    86     1 
   83    87     1 
   83    88     1 
   84    86     1 
   84    87     1 
   84    88     1 
   85    92     1 
   85    93     1 
   85    94     1 
   86    89     1 
   86    90     1 
   86    91     1 
   87    89     1 
   87    90     1 
   87    91     1 
   88    95     1 
   88    96     1 
   88    97     1 
   89    92     1 
   89    93     1 
   89    94     1 
   90    92     1 
   90    93     1 
   90    94     1 
   91    98     1 
   91    99     1 
   91   100     1 
   92    95     1 
   92    96     1 
   92    97     1 
   93    95     1 
   93    96     1 
   93    97     1 
   95    98     1 
   95    99     1 
   95   100     1 
   96    98     1 
   96    99     1 
   96   100     1 

[ angles ]
;  ai    aj    ak funct            c0            c1            c2            c3
    2     1     3     5 
    2     1     4     5 
    2     1     6     5 
    3     1     4     5 
    3     1     6     5 
    4     1     6     5 
    1     4     5     5 
    1     6     7     5 
    6     7     8     5 
    6     7     9     5 
    6     7    10     5 
    8     7     9     5 
    8     7    10     5 
    9     7    10     5 
    7    10    11     5 
    7    10    12     5 
    7    10    18     5 
   11    10    12     5 
   11    10    18     5 
   12    10    18     5 
   10    12    13     5 
   12    13    14     5 
   12    13    15     5 
   14    13    15     5 
   13    15    16     5 
   13    15    17     5 
   13    15    27     5 
   16    15    17     5 
   16    15    27     5 
   17    15    27     5 
   10    18    19     5 
   10    18    20     5 
   10    18    21     5 
   19    18    20     5 
   19    18    21     5 
   20    18    21     5 
   18    21    22     5 
   21    22    23     5 
   21    22    24     5 
   23    22    24     5 
   22    24    25     5 
   22    24    26     5 
   22    24    64     5 
   25    24    26     5 
   25    24    64     5 
   26    24    64     5 
   15    27    28     5 
   15    27    29     5 
   15    27    30     5 
   28    27    29     5 
   28    27    30     5 
   29    27    30     5 
   27    30    31     5 
   27    30    32     5 
   27    30    33     5 
   31    30    32     5 
   31    30    33     5 
   32    30    33     5 
   30    33    34     5 
   30    33    35     5 
   30    33    36     5 
   34    33    35     5 
   34    33    36     5 
   35    33    36     5 
   33    36    37     5 
   33    36    38     5 
   33    36    39     5 
   37    36    38     5 
   37    36    39     5 
   38    36    39     5 
   36    39    40     5 
   36    39    41     5 
   36    39    42     5 
   40    39    41     5 
   40    39    42     5 
   41    39    42     5 
   39    42    43     5 
   39    42    44     5 
   39    42    45     5 
   43    42    44     5 
   43    42    45     5 
   44    42    45     5 
   42    45    46     5 
   42    45    47     5 
   42    45    48     5 
   46    45    47     5 
   46    45    48     5 
   47    45    48     5 
   45    48    49     5 
   45    48    50     5 
   45    48    51     5 
   49    48    50     5 
   49    48    51     5 
   50    48    51     5 
   48    51    52     5 
   48    51    53     5 
   48    51    54     5 
   52    51    53     5 
   52    51    54     5 
   53    51    54     5 
   51    54    55     5 
   51    54    56     5 
   51    54    57     5 
   55    54    56     5 
   55    54    57     5 
   56    54    57     5 
   54    57    58     5 
   54    57    59     5 
   54    57    60     5 
   58    57    59     5 
   58    57    60     5 
   59    57    60     5 
   57    60    61     5 
   57    60    62     5 
   57    60    63     5 
   61    60    62     5 
   61    60    63     5 
   62    60    63     5 
   24    64    65     5 
   24    64    66     5 
   24    64    67     5 
   65    64    66     5 
   65    64    67     5 
   66    64    67     5 
   64    67    68     5 
   64    67    69     5 
   64    67    70     5 
   68    67    69     5 
   68    67    70     5 
   69    67    70     5 
   67    70    71     5 
   67    70    72     5 
   67    70    73     5 
   71    70    72     5 
   71    70    73     5 
   72    70    73     5 
   70    73    74     5 
   70    73    75     5 
   70    73    76     5 
   74    73    75     5 
   74    73    76     5 
   75    73    76     5 
   73    76    77     5 
   73    76    78     5 
   73    76    79     5 
   77    76    78     5 
   77    76    79     5 
   78    76    79     5 
   76    79    80     5 
   76    79    81     5 
   76    79    82     5 
   80    79    81     5 
   80    79    82     5 
   81    79    82     5 
   79    82    83     5 
   79    82    84     5 
   79    82    85     5 
   83    82    84     5 
   83    82    85     5 
   84    82    85     5 
   82    85    86     5 
   82    85    87     5 
   82    85    88     5 
   86    85    87     5 
   86    85    88     5 
   87    85    88     5 
   85    88    89     5 
   85    88    90     5 
   85    88    91     5 
   89    88    90     5 
   89    88    91     5 
   90    88    91     5 
   88    91    92     5 
   88    91    93     5 
   88    91    94     5 
   92    91    93     5 
   92    91    94     5 
   93    91    94     5 
   91    94    95     5 
   91    94    96     5 
   91    94    97     5 
   95    94    96     5 
   95    94    97     5 
   96    94    97     5 
   94    97    98     5 
   94    97    99     5 
   94    97   100     5 
   98    97    99     5 
   98    97   100     5 
   99    97   100     5 

[ dihedrals ]
;  ai    aj    ak    al funct            c0            c1            c2            c3            c4            c5
    2     1     4     5     9 
    3     1     4     5     9 
    6     1     4     5     9 
    2     1     6     7     9 
    3     1     6     7     9 
    4     1     6     7     9 
    1     6     7     8     9 
    1     6     7     9     9 
    1     6     7    10     9 
    6     7    10    11     9 
    6     7    10    12     9 
    6     7    10    18     9 
    8     7    10    11     9 
    8     7    10    12     9 
    8     7    10    18     9 
    9     7    10    11     9 
    9     7    10    12     9 
    9     7    10    18     9 
    7    10    12    13     9 
   11    10    12    13     9 
   18    10    12    13     9 
    7    10    18    19     9 
    7    10    18    20     9 
    7    10    18    21     9 
   11    10    18    19     9 
   11    10    18    20     9 
   11    10    18    21     9 
   12    10    18    19     9 
   12    10    18    20     9 
   12    10    18    21     9 
   10    12    13    14     9 
   10    12    13    15     9 
   12    13    15    16     9 
   12    13    15    17     9 
   12    13    15    27     9 
   14    13    15    16     9 
   14    13    15    17     9 
   14    13    15    27     9 
   13    15    27    28     9 
   13    15    27    29     9 
   13    15    27    30     9 
   16    15    27    28     9 
   16    15    27    29     9 
   16    15    27    30     9 
   17    15    27    28     9 
   17    15    27    29     9 
   17    15    27    30     9 
   10    18    21    22     9 
   19    18    21    22     9 
   20    18    21    22     9 
   18    21    22    23     9 
   18    21    22    24     9 
   21    22    24    25     9 
   21    22    24    26     9 
   21    22    24    64     9 
   23    22    24    25     9 
   23    22    24    26     9 
   23    22    24    64     9 
   22    24    64    65     9 
   22    24    64    66     9 
   22    24    64    67     9 
   25    24    64    65     9 
   25    24    64    66     9 
   25    24    64    67     9 
   26    24    64    65     9 
   26    24    64    66     9 
   26    24    64    67     9 
   15    27    30    31     9 
   15    27    30    32     9 
   15    27    30    33     9 
   28    27    30    31     9 
   28    27    30    32     9 
   28    27    30    33     9 
   29    27    30    31     9 
   29    27    30    32     9 
   29    27    30    33     9 
   27    30    33    34     9 
   27    30    33    35     9 
   27    30    33    36     9 
   31    30    33    34     9 
   31    30    33    35     9 
   31    30    33    36     9 
   32    30    33    34     9 
   32    30    33    35     9 
   32    30    33    36     9 
   30    33    36    37     9 
   30    33    36    38     9 
   30    33    36    39     9 
   34    33    36    37     9 
   34    33    36    38     9 
   34    33    36    39     9 
   35    33    36    37     9 
   35    33    36    38     9 
   35    33    36    39     9 
   33    36    39    40     9 
   33    36    39    41     9 
   33    36    39    42     9 
   37    36    39    40     9 
   37    36    39    41     9 
   37    36    39    42     9 
   38    36    39    40     9 
   38    36    39    41     9 
   38    36    39    42     9 
   36    39    42    43     9 
   36    39    42    44     9 
   36    39    42    45     9 
   40    39    42    43     9 
   40    39    42    44     9 
   40    39    42    45     9 
   41    39    42    43     9 
   41    39    42    44     9 
   41    39    42    45     9 
   39    42    45    46     9 
   39    42    45    47     9 
   39    42    45    48     9 
   43    42    45    46     9 
   43    42    45    47     9 
   43    42    45    48     9 
   44    42    45    46     9 
   44    42    45    47     9 
   44    42    45    48     9 
   42    45    48    49     9 
   42    45    48    50     9 
   42    45    48    51     9 
   46    45    48    49     9 
   46    45    48    50     9 
   46    45    48    51     9 
   47    45    48    49     9 
   47    45    48    50     9 
   47    45    48    51     9 
   45    48    51    52     9 
   45    48    51    53     9 
   45    48    51    54     9 
   49    48    51    52     9 
   49    48    51    53     9 
   49    48    51    54     9 
   50    48    51    52     9 
   50    48    51    53     9 
   50    48    51    54     9 
   48    51    54    55     9 
   48    51    54    56     9 
   48    51    54    57     9 
   52    51    54    55     9 
   52    51    54    56     9 
   52    51    54    57     9 
   53    51    54    55     9 
   53    51    54    56     9 
   53    51    54    57     9 
   51    54    57    58     9 
   51    54    57    59     9 
   51    54    57    60     9 
   55    54    57    58     9 
   55    54    57    59     9 
   55    54    57    60     9 
   56    54    57    58     9 
   56    54    57    59     9 
   56    54    57    60     9 
   54    57    60    61     9 
   54    57    60    62     9 
   54    57    60    63     9 
   58    57    60    61     9 
   58    57    60    62     9 
   58    57    60    63     9 
   59    57    60    61     9 
   59    57    60    62     9 
   59    57    60    63     9 
   24    64    67    68     9 
   24    64    67    69     9 
   24    64    67    70     9 
   65    64    67    68     9 
   65    64    67    69     9 
   65    64    67    70     9 
   66    64    67    68     9 
   66    64    67    69     9 
   66    64    67    70     9 
   64    67    70    71     9 
   64    67    70    72     9 
   64    67    70    73     9 
   68    67    70    71     9 
   68    67    70    72     9 
   68    67    70    73     9 
   69    67    70    71     9 
   69    67    70    72     9 
   69    67    70    73     9 
   67    70    73    74     9 
   67    70    73    75     9 
   67    70    73    76     9 
   71    70    73    74     9 
   71    70    73    75     9 
   71    70    73    76     9 
   72    70    73    74     9 
   72    70    73    75     9 
   72    70    73    76     9 
   70    73    76    77     9 
   70    73    76    78     9 
   70    73    76    79     9 
   74    73    76    77     9 
   74    73    76    78     9 
   74    73    76    79     9 
   75    73    76    77     9 
   75    73    76    78     9 
   75    73    76    79     9 
   73    76    79    80     9 
   73    76    79    81     9 
   73    76    79    82     9 
   77    76    79    80     9 
   77    76    79    81     9 
   77    76    79    82     9 
   78    76    79    80     9 
   78    76    79    81     9 
   78    76    79    82     9 
   76    79    82    83     9 
   76    79    82    84     9 
   76    79    82    85     9 
   80    79    82    83     9 
   80    79    82    84     9 
   80    79    82    85     9 
   81    79    82    83     9 
   81    79    82    84     9 
   81    79    82    85     9 
   79    82    85    86     9 
   79    82    85    87     9 
   79    82    85    88     9 
   83    82    85    86     9 
   83    82    85    87     9 
   83    82    85    88     9 
   84    82    85    86     9 
   84    82    85    87     9 
   84    82    85    88     9 
   82    85    88    89     9 
   82    85    88    90     9 
   82    85    88    91     9 
   86    85    88    89     9 
   86    85    88    90     9 
   86    85    88    91     9 
   87    85    88    89     9 
   87    85    88    90     9 
   87    85    88    91     9 
   85    88    91    92     9 
   85    88    91    93     9 
   85    88    91    94     9 
   89    88    91    92     9 
   89    88    91    93     9 
   89    88    91    94     9 
   90    88    91    92     9 
   90    88    91    93     9 
   90    88    91    94     9 
   88    91    94    95     9 
   88    91    94    96     9 
   88    91    94    97     9 
   92    91    94    95     9 
   92    91    94    96     9 
   92    91    94    97     9 
   93    91    94    95     9 
   93    91    94    96     9 
   93    91    94    97     9 
   91    94    97    98     9 
   91    94    97    99     9 
   91    94    97   100     9 
   95    94    97    98     9 
   95    94    97    99     9 
   95    94    97   100     9 
   96    94    97    98     9 
   96    94    97    99     9 
   96    94    97   100     9 

[ dihedrals ]
;  ai    aj    ak    al funct            c0            c1            c2            c3
   13    12    15    14     2 
   22    21    24    23     2 

; Include Position restraint file
#ifdef POSRES
#include "DMPA_posre.itp"
#endif

