[ moleculetype ]
; Name            nrexcl
MA                  3

[ atoms ]
;   nr       type  resnr residue  atom   cgnr     charge       mass  typeB    chargeB      massB
; residue   1 MA  rtp MA   q -1.0
     1        OCL      1     MA     O1      1      -0.76    15.9994
     2        OCL      1     MA     O2      1      -0.76    15.9994
     3         CL      1     MA     C1      1       0.62     12.011
     4       CTL2      1     MA     C2      1      -0.28     12.011
     5       HAL2      1     MA    H2R      1       0.09      1.008
     6       HAL2      1     MA    H2S      1       0.09      1.008
     7       CTL2      1     MA     C3      2      -0.18     12.011
     8       HAL2      1     MA    H3R      2       0.09      1.008
     9       HAL2      1     MA    H3S      2       0.09      1.008
    10       CTL2      1     MA     C4      3      -0.18     12.011
    11       HAL2      1     MA    H4R      3       0.09      1.008
    12       HAL2      1     MA    H4S      3       0.09      1.008
    13       CTL2      1     MA     C5      4      -0.18     12.011
    14       HAL2      1     MA    H5R      4       0.09      1.008
    15       HAL2      1     MA    H5S      4       0.09      1.008
    16       CTL2      1     MA     C6      5      -0.18     12.011
    17       HAL2      1     MA    H6R      5       0.09      1.008
    18       HAL2      1     MA    H6S      5       0.09      1.008
    19       CTL2      1     MA     C7      6      -0.18     12.011
    20       HAL2      1     MA    H7R      6       0.09      1.008
    21       HAL2      1     MA    H7S      6       0.09      1.008
    22       CTL2      1     MA     C8      7      -0.18     12.011
    23       HAL2      1     MA    H8R      7       0.09      1.008
    24       HAL2      1     MA    H8S      7       0.09      1.008
    25       CTL2      1     MA     C9      8      -0.18     12.011
    26       HAL2      1     MA    H9R      8       0.09      1.008
    27       HAL2      1     MA    H9S      8       0.09      1.008
    28       CTL2      1     MA    C10      9      -0.18     12.011
    29       HAL2      1     MA   H10R      9       0.09      1.008
    30       HAL2      1     MA   H10S      9       0.09      1.008
    31       CTL2      1     MA    C11     10      -0.18     12.011
    32       HAL2      1     MA   H11R     10       0.09      1.008
    33       HAL2      1     MA   H11S     10       0.09      1.008
    34       CTL2      1     MA    C12     11      -0.18     12.011
    35       HAL2      1     MA   H12R     11       0.09      1.008
    36       HAL2      1     MA   H12S     11       0.09      1.008
    37       CTL2      1     MA    C13     12      -0.18     12.011
    38       HAL2      1     MA   H13R     12       0.09      1.008
    39       HAL2      1     MA   H13S     12       0.09      1.008
    40       CTL3      1     MA    C14     13      -0.27     12.011
    41       HAL3      1     MA   H14R     13       0.09      1.008
    42       HAL3      1     MA   H14S     13       0.09      1.008
    43       HAL3      1     MA   H14T     13       0.09      1.008   ; qtot -1

[ bonds ]
;  ai    aj funct            c0            c1            c2            c3
    1     3     1 
    2     3     1 
    3     4     1 
    4     5     1 
    4     6     1 
    4     7     1 
    7     8     1 
    7     9     1 
    7    10     1 
   10    11     1 
   10    12     1 
   10    13     1 
   13    14     1 
   13    15     1 
   13    16     1 
   16    17     1 
   16    18     1 
   16    19     1 
   19    20     1 
   19    21     1 
   19    22     1 
   22    23     1 
   22    24     1 
   22    25     1 
   25    26     1 
   25    27     1 
   25    28     1 
   28    29     1 
   28    30     1 
   28    31     1 
   31    32     1 
   31    33     1 
   31    34     1 
   34    35     1 
   34    36     1 
   34    37     1 
   37    38     1 
   37    39     1 
   37    40     1 
   40    41     1 
   40    42     1 
   40    43     1 

[ pairs ]
;  ai    aj funct            c0            c1            c2            c3
    1     5     1 
    1     6     1 
    1     7     1 
    2     5     1 
    2     6     1 
    2     7     1 
    3     8     1 
    3     9     1 
    3    10     1 
    4    11     1 
    4    12     1 
    4    13     1 
    5     8     1 
    5     9     1 
    5    10     1 
    6     8     1 
    6     9     1 
    6    10     1 
    7    14     1 
    7    15     1 
    7    16     1 
    8    11     1 
    8    12     1 
    8    13     1 
    9    11     1 
    9    12     1 
    9    13     1 
   10    17     1 
   10    18     1 
   10    19     1 
   11    14     1 
   11    15     1 
   11    16     1 
   12    14     1 
   12    15     1 
   12    16     1 
   13    20     1 
   13    21     1 
   13    22     1 
   14    17     1 
   14    18     1 
   14    19     1 
   15    17     1 
   15    18     1 
   15    19     1 
   16    23     1 
   16    24     1 
   16    25     1 
   17    20     1 
   17    21     1 
   17    22     1 
   18    20     1 
   18    21     1 
   18    22     1 
   19    26     1 
   19    27     1 
   19    28     1 
   20    23     1 
   20    24     1 
   20    25     1 
   21    23     1 
   21    24     1 
   21    25     1 
   22    29     1 
   22    30     1 
   22    31     1 
   23    26     1 
   23    27     1 
   23    28     1 
   24    26     1 
   24    27     1 
   24    28     1 
   25    32     1 
   25    33     1 
   25    34     1 
   26    29     1 
   26    30     1 
   26    31     1 
   27    29     1 
   27    30     1 
   27    31     1 
   28    35     1 
   28    36     1 
   28    37     1 
   29    32     1 
   29    33     1 
   29    34     1 
   30    32     1 
   30    33     1 
   30    34     1 
   31    38     1 
   31    39     1 
   31    40     1 
   32    35     1 
   32    36     1 
   32    37     1 
   33    35     1 
   33    36     1 
   33    37     1 
   34    41     1 
   34    42     1 
   34    43     1 
   35    38     1 
   35    39     1 
   35    40     1 
   36    38     1 
   36    39     1 
   36    40     1 
   38    41     1 
   38    42     1 
   38    43     1 
   39    41     1 
   39    42     1 
   39    43     1 

[ angles ]
;  ai    aj    ak funct            c0            c1            c2            c3
    1     3     2     5 
    1     3     4     5 
    2     3     4     5 
    3     4     5     5 
    3     4     6     5 
    3     4     7     5 
    5     4     6     5 
    5     4     7     5 
    6     4     7     5 
    4     7     8     5 
    4     7     9     5 
    4     7    10     5 
    8     7     9     5 
    8     7    10     5 
    9     7    10     5 
    7    10    11     5 
    7    10    12     5 
    7    10    13     5 
   11    10    12     5 
   11    10    13     5 
   12    10    13     5 
   10    13    14     5 
   10    13    15     5 
   10    13    16     5 
   14    13    15     5 
   14    13    16     5 
   15    13    16     5 
   13    16    17     5 
   13    16    18     5 
   13    16    19     5 
   17    16    18     5 
   17    16    19     5 
   18    16    19     5 
   16    19    20     5 
   16    19    21     5 
   16    19    22     5 
   20    19    21     5 
   20    19    22     5 
   21    19    22     5 
   19    22    23     5 
   19    22    24     5 
   19    22    25     5 
   23    22    24     5 
   23    22    25     5 
   24    22    25     5 
   22    25    26     5 
   22    25    27     5 
   22    25    28     5 
   26    25    27     5 
   26    25    28     5 
   27    25    28     5 
   25    28    29     5 
   25    28    30     5 
   25    28    31     5 
   29    28    30     5 
   29    28    31     5 
   30    28    31     5 
   28    31    32     5 
   28    31    33     5 
   28    31    34     5 
   32    31    33     5 
   32    31    34     5 
   33    31    34     5 
   31    34    35     5 
   31    34    36     5 
   31    34    37     5 
   35    34    36     5 
   35    34    37     5 
   36    34    37     5 
   34    37    38     5 
   34    37    39     5 
   34    37    40     5 
   38    37    39     5 
   38    37    40     5 
   39    37    40     5 
   37    40    41     5 
   37    40    42     5 
   37    40    43     5 
   41    40    42     5 
   41    40    43     5 
   42    40    43     5 

[ dihedrals ]
;  ai    aj    ak    al funct            c0            c1            c2            c3            c4            c5
    1     3     4     5     9 
    1     3     4     6     9 
    1     3     4     7     9 
    2     3     4     5     9 
    2     3     4     6     9 
    2     3     4     7     9 
    3     4     7     8     9 
    3     4     7     9     9 
    3     4     7    10     9 
    5     4     7     8     9 
    5     4     7     9     9 
    5     4     7    10     9 
    6     4     7     8     9 
    6     4     7     9     9 
    6     4     7    10     9 
    4     7    10    11     9 
    4     7    10    12     9 
    4     7    10    13     9 
    8     7    10    11     9 
    8     7    10    12     9 
    8     7    10    13     9 
    9     7    10    11     9 
    9     7    10    12     9 
    9     7    10    13     9 
    7    10    13    14     9 
    7    10    13    15     9 
    7    10    13    16     9 
   11    10    13    14     9 
   11    10    13    15     9 
   11    10    13    16     9 
   12    10    13    14     9 
   12    10    13    15     9 
   12    10    13    16     9 
   10    13    16    17     9 
   10    13    16    18     9 
   10    13    16    19     9 
   14    13    16    17     9 
   14    13    16    18     9 
   14    13    16    19     9 
   15    13    16    17     9 
   15    13    16    18     9 
   15    13    16    19     9 
   13    16    19    20     9 
   13    16    19    21     9 
   13    16    19    22     9 
   17    16    19    20     9 
   17    16    19    21     9 
   17    16    19    22     9 
   18    16    19    20     9 
   18    16    19    21     9 
   18    16    19    22     9 
   16    19    22    23     9 
   16    19    22    24     9 
   16    19    22    25     9 
   20    19    22    23     9 
   20    19    22    24     9 
   20    19    22    25     9 
   21    19    22    23     9 
   21    19    22    24     9 
   21    19    22    25     9 
   19    22    25    26     9 
   19    22    25    27     9 
   19    22    25    28     9 
   23    22    25    26     9 
   23    22    25    27     9 
   23    22    25    28     9 
   24    22    25    26     9 
   24    22    25    27     9 
   24    22    25    28     9 
   22    25    28    29     9 
   22    25    28    30     9 
   22    25    28    31     9 
   26    25    28    29     9 
   26    25    28    30     9 
   26    25    28    31     9 
   27    25    28    29     9 
   27    25    28    30     9 
   27    25    28    31     9 
   25    28    31    32     9 
   25    28    31    33     9 
   25    28    31    34     9 
   29    28    31    32     9 
   29    28    31    33     9 
   29    28    31    34     9 
   30    28    31    32     9 
   30    28    31    33     9 
   30    28    31    34     9 
   28    31    34    35     9 
   28    31    34    36     9 
   28    31    34    37     9 
   32    31    34    35     9 
   32    31    34    36     9 
   32    31    34    37     9 
   33    31    34    35     9 
   33    31    34    36     9 
   33    31    34    37     9 
   31    34    37    38     9 
   31    34    37    39     9 
   31    34    37    40     9 
   35    34    37    38     9 
   35    34    37    39     9 
   35    34    37    40     9 
   36    34    37    38     9 
   36    34    37    39     9 
   36    34    37    40     9 
   34    37    40    41     9 
   34    37    40    42     9 
   34    37    40    43     9 
   38    37    40    41     9 
   38    37    40    42     9 
   38    37    40    43     9 
   39    37    40    41     9 
   39    37    40    42     9 
   39    37    40    43     9 

[ dihedrals ]
;  ai    aj    ak    al funct            c0            c1            c2            c3
    3     1     4     2     2 

; Include Position restraint file
#ifdef POSRES
#include "MA_posre.itp"
#endif

