[ moleculetype ]
; Name            nrexcl
DJPC                3

[ atoms ]
;   nr       type  resnr residue  atom   cgnr     charge       mass  typeB    chargeB      massB
; residue   1 DJPC rtp DJPC q  0.0
     1        NTL      1   DJPC      N      1       -0.6     14.007
     2       CTL5      1   DJPC    C13      1      -0.35     12.011
     3         HL      1   DJPC   H13A      1       0.25      1.008
     4         HL      1   DJPC   H13B      1       0.25      1.008
     5         HL      1   DJPC   H13C      1       0.25      1.008
     6       CTL5      1   DJPC    C14      1      -0.35     12.011
     7         HL      1   DJPC   H14A      1       0.25      1.008
     8         HL      1   DJPC   H14B      1       0.25      1.008
     9         HL      1   DJPC   H14C      1       0.25      1.008
    10       CTL5      1   DJPC    C15      1      -0.35     12.011
    11         HL      1   DJPC   H15A      1       0.25      1.008
    12         HL      1   DJPC   H15B      1       0.25      1.008
    13         HL      1   DJPC   H15C      1       0.25      1.008
    14       CTL2      1   DJPC    C12      1       -0.1     12.011
    15         HL      1   DJPC   H12A      1       0.25      1.008
    16         HL      1   DJPC   H12B      1       0.25      1.008
    17       CTL2      1   DJPC    C11      2      -0.08     12.011
    18       HAL2      1   DJPC   H11A      2       0.09      1.008
    19       HAL2      1   DJPC   H11B      2       0.09      1.008
    20         PL      1   DJPC      P      2        1.5     30.974
    21        O2L      1   DJPC    O13      2      -0.78    15.9994
    22        O2L      1   DJPC    O14      2      -0.78    15.9994
    23       OSLP      1   DJPC    O11      2      -0.57    15.9994
    24       OSLP      1   DJPC    O12      2      -0.57    15.9994
    25       CTL2      1   DJPC     C1      2      -0.08     12.011
    26       HAL2      1   DJPC     HA      2       0.09      1.008
    27       HAL2      1   DJPC     HB      2       0.09      1.008
    28       CTL1      1   DJPC     C2      3       0.17     12.011
    29       HAL1      1   DJPC     HS      3       0.09      1.008
    30        OSL      1   DJPC    O21      3      -0.49    15.9994
    31         CL      1   DJPC    C21      3        0.9     12.011
    32        OBL      1   DJPC    O22      3      -0.63    15.9994
    33       CTL2      1   DJPC    C22      3      -0.22     12.011
    34       HAL2      1   DJPC    H2R      3       0.09      1.008
    35       HAL2      1   DJPC    H2S      3       0.09      1.008
    36       CTL2      1   DJPC     C3      4       0.08     12.011
    37       HAL2      1   DJPC     HX      4       0.09      1.008
    38       HAL2      1   DJPC     HY      4       0.09      1.008
    39        OSL      1   DJPC    O31      4      -0.49    15.9994
    40         CL      1   DJPC    C31      4        0.9     12.011
    41        OBL      1   DJPC    O32      4      -0.63    15.9994
    42       CTL2      1   DJPC    C32      4      -0.22     12.011
    43       HAL2      1   DJPC    H2X      4       0.09      1.008
    44       HAL2      1   DJPC    H2Y      4       0.09      1.008
    45       CTL2      1   DJPC    C23      5      -0.18     12.011
    46       HAL2      1   DJPC    H3R      5       0.09      1.008
    47       HAL2      1   DJPC    H3S      5       0.09      1.008
    48       CTL2      1   DJPC    C24      6      -0.18     12.011
    49       HAL2      1   DJPC    H4R      6       0.09      1.008
    50       HAL2      1   DJPC    H4S      6       0.09      1.008
    51       CTL2      1   DJPC    C25      7      -0.18     12.011
    52       HAL2      1   DJPC    H5R      7       0.09      1.008
    53       HAL2      1   DJPC    H5S      7       0.09      1.008
    54       CTL2      1   DJPC    C26      8      -0.18     12.011
    55       HAL2      1   DJPC    H6R      8       0.09      1.008
    56       HAL2      1   DJPC    H6S      8       0.09      1.008
    57       CTL2      1   DJPC    C27      9      -0.18     12.011
    58       HAL2      1   DJPC    H7R      9       0.09      1.008
    59       HAL2      1   DJPC    H7S      9       0.09      1.008
    60       CTL2      1   DJPC    C28     10      -0.18     12.011
    61       HAL2      1   DJPC    H8R     10       0.09      1.008
    62       HAL2      1   DJPC    H8S     10       0.09      1.008
    63       CTL2      1   DJPC    C29     11      -0.18     12.011
    64       HAL2      1   DJPC    H9R     11       0.09      1.008
    65       HAL2      1   DJPC    H9S     11       0.09      1.008
    66       CTL3      1   DJPC   C210     12      -0.27     12.011
    67       HAL3      1   DJPC   H10R     12       0.09      1.008
    68       HAL3      1   DJPC   H10S     12       0.09      1.008
    69       HAL3      1   DJPC   H10T     12       0.09      1.008
    70       CTL2      1   DJPC    C33     13      -0.18     12.011
    71       HAL2      1   DJPC    H3X     13       0.09      1.008
    72       HAL2      1   DJPC    H3Y     13       0.09      1.008
    73       CTL2      1   DJPC    C34     14      -0.18     12.011
    74       HAL2      1   DJPC    H4X     14       0.09      1.008
    75       HAL2      1   DJPC    H4Y     14       0.09      1.008
    76       CTL2      1   DJPC    C35     15      -0.18     12.011
    77       HAL2      1   DJPC    H5X     15       0.09      1.008
    78       HAL2      1   DJPC    H5Y     15       0.09      1.008
    79       CTL2      1   DJPC    C36     16      -0.18     12.011
    80       HAL2      1   DJPC    H6X     16       0.09      1.008
    81       HAL2      1   DJPC    H6Y     16       0.09      1.008
    82       CTL2      1   DJPC    C37     17      -0.18     12.011
    83       HAL2      1   DJPC    H7X     17       0.09      1.008
    84       HAL2      1   DJPC    H7Y     17       0.09      1.008
    85       CTL2      1   DJPC    C38     18      -0.18     12.011
    86       HAL2      1   DJPC    H8X     18       0.09      1.008
    87       HAL2      1   DJPC    H8Y     18       0.09      1.008
    88       CTL2      1   DJPC    C39     19      -0.18     12.011
    89       HAL2      1   DJPC    H9X     19       0.09      1.008
    90       HAL2      1   DJPC    H9Y     19       0.09      1.008
    91       CTL3      1   DJPC   C310     20      -0.27     12.011
    92       HAL3      1   DJPC   H10X     20       0.09      1.008
    93       HAL3      1   DJPC   H10Y     20       0.09      1.008
    94       HAL3      1   DJPC   H10Z     20       0.09      1.008   ; qtot 0

[ bonds ]
;  ai    aj funct            c0            c1            c2            c3
    1     2     1 
    1     6     1 
    1    10     1 
    1    14     1 
    2     3     1 
    2     4     1 
    2     5     1 
    6     7     1 
    6     8     1 
    6     9     1 
   10    11     1 
   10    12     1 
   10    13     1 
   14    15     1 
   14    16     1 
   14    17     1 
   17    18     1 
   17    19     1 
   17    24     1 
   20    21     1 
   20    22     1 
   20    23     1 
   20    24     1 
   23    25     1 
   25    26     1 
   25    27     1 
   25    28     1 
   28    29     1 
   28    30     1 
   28    36     1 
   30    31     1 
   31    32     1 
   31    33     1 
   33    34     1 
   33    35     1 
   33    45     1 
   36    37     1 
   36    38     1 
   36    39     1 
   39    40     1 
   40    41     1 
   40    42     1 
   42    43     1 
   42    44     1 
   42    70     1 
   45    46     1 
   45    47     1 
   45    48     1 
   48    49     1 
   48    50     1 
   48    51     1 
   51    52     1 
   51    53     1 
   51    54     1 
   54    55     1 
   54    56     1 
   54    57     1 
   57    58     1 
   57    59     1 
   57    60     1 
   60    61     1 
   60    62     1 
   60    63     1 
   63    64     1 
   63    65     1 
   63    66     1 
   66    67     1 
   66    68     1 
   66    69     1 
   70    71     1 
   70    72     1 
   70    73     1 
   73    74     1 
   73    75     1 
   73    76     1 
   76    77     1 
   76    78     1 
   76    79     1 
   79    80     1 
   79    81     1 
   79    82     1 
   82    83     1 
   82    84     1 
   82    85     1 
   85    86     1 
   85    87     1 
   85    88     1 
   88    89     1 
   88    90     1 
   88    91     1 
   91    92     1 
   91    93     1 
   91    94     1 

[ pairs ]
;  ai    aj funct            c0            c1            c2            c3
    1    18     1 
    1    19     1 
    1    24     1 
    2     7     1 
    2     8     1 
    2     9     1 
    2    11     1 
    2    12     1 
    2    13     1 
    2    15     1 
    2    16     1 
    2    17     1 
    3     6     1 
    3    10     1 
    3    14     1 
    4     6     1 
    4    10     1 
    4    14     1 
    5     6     1 
    5    10     1 
    5    14     1 
    6    11     1 
    6    12     1 
    6    13     1 
    6    15     1 
    6    16     1 
    6    17     1 
    7    10     1 
    7    14     1 
    8    10     1 
    8    14     1 
    9    10     1 
    9    14     1 
   10    15     1 
   10    16     1 
   10    17     1 
   11    14     1 
   12    14     1 
   13    14     1 
   14    20     1 
   15    18     1 
   15    19     1 
   15    24     1 
   16    18     1 
   16    19     1 
   16    24     1 
   17    21     1 
   17    22     1 
   17    23     1 
   18    20     1 
   19    20     1 
   20    26     1 
   20    27     1 
   20    28     1 
   21    25     1 
   22    25     1 
   23    29     1 
   23    30     1 
   23    36     1 
   24    25     1 
   25    31     1 
   25    37     1 
   25    38     1 
   25    39     1 
   26    29     1 
   26    30     1 
   26    36     1 
   27    29     1 
   27    30     1 
   27    36     1 
   28    32     1 
   28    33     1 
   28    40     1 
   29    31     1 
   29    37     1 
   29    38     1 
   29    39     1 
   30    34     1 
   30    35     1 
   30    37     1 
   30    38     1 
   30    39     1 
   30    45     1 
   31    36     1 
   31    46     1 
   31    47     1 
   31    48     1 
   32    34     1 
   32    35     1 
   32    45     1 
   33    49     1 
   33    50     1 
   33    51     1 
   34    46     1 
   34    47     1 
   34    48     1 
   35    46     1 
   35    47     1 
   35    48     1 
   36    41     1 
   36    42     1 
   37    40     1 
   38    40     1 
   39    43     1 
   39    44     1 
   39    70     1 
   40    71     1 
   40    72     1 
   40    73     1 
   41    43     1 
   41    44     1 
   41    70     1 
   42    74     1 
   42    75     1 
   42    76     1 
   43    71     1 
   43    72     1 
   43    73     1 
   44    71     1 
   44    72     1 
   44    73     1 
   45    52     1 
   45    53     1 
   45    54     1 
   46    49     1 
   46    50     1 
   46    51     1 
   47    49     1 
   47    50     1 
   47    51     1 
   48    55     1 
   48    56     1 
   48    57     1 
   49    52     1 
   49    53     1 
   49    54     1 
   50    52     1 
   50    53     1 
   50    54     1 
   51    58     1 
   51    59     1 
   51    60     1 
   52    55     1 
   52    56     1 
   52    57     1 
   53    55     1 
   53    56     1 
   53    57     1 
   54    61     1 
   54    62     1 
   54    63     1 
   55    58     1 
   55    59     1 
   55    60     1 
   56    58     1 
   56    59     1 
   56    60     1 
   57    64     1 
   57    65     1 
   57    66     1 
   58    61     1 
   58    62     1 
   58    63     1 
   59    61     1 
   59    62     1 
   59    63     1 
   60    67     1 
   60    68     1 
   60    69     1 
   61    64     1 
   61    65     1 
   61    66     1 
   62    64     1 
   62    65     1 
   62    66     1 
   64    67     1 
   64    68     1 
   64    69     1 
   65    67     1 
   65    68     1 
   65    69     1 
   70    77     1 
   70    78     1 
   70    79     1 
   71    74     1 
   71    75     1 
   71    76     1 
   72    74     1 
   72    75     1 
   72    76     1 
   73    80     1 
   73    81     1 
   73    82     1 
   74    77     1 
   74    78     1 
   74    79     1 
   75    77     1 
   75    78     1 
   75    79     1 
   76    83     1 
   76    84     1 
   76    85     1 
   77    80     1 
   77    81     1 
   77    82     1 
   78    80     1 
   78    81     1 
   78    82     1 
   79    86     1 
   79    87     1 
   79    88     1 
   80    83     1 
   80    84     1 
   80    85     1 
   81    83     1 
   81    84     1 
   81    85     1 
   82    89     1 
   82    90     1 
   82    91     1 
   83    86     1 
   83    87     1 
   83    88     1 
   84    86     1 
   84    87     1 
   84    88     1 
   85    92     1 
   85    93     1 
   85    94     1 
   86    89     1 
   86    90     1 
   86    91     1 
   87    89     1 
   87    90     1 
   87    91     1 
   89    92     1 
   89    93     1 
   89    94     1 
   90    92     1 
   90    93     1 
   90    94     1 

[ angles ]
;  ai    aj    ak funct            c0            c1            c2            c3
    2     1     6     5 
    2     1    10     5 
    2     1    14     5 
    6     1    10     5 
    6     1    14     5 
   10     1    14     5 
    1     2     3     5 
    1     2     4     5 
    1     2     5     5 
    3     2     4     5 
    3     2     5     5 
    4     2     5     5 
    1     6     7     5 
    1     6     8     5 
    1     6     9     5 
    7     6     8     5 
    7     6     9     5 
    8     6     9     5 
    1    10    11     5 
    1    10    12     5 
    1    10    13     5 
   11    10    12     5 
   11    10    13     5 
   12    10    13     5 
    1    14    15     5 
    1    14    16     5 
    1    14    17     5 
   15    14    16     5 
   15    14    17     5 
   16    14    17     5 
   14    17    18     5 
   14    17    19     5 
   14    17    24     5 
   18    17    19     5 
   18    17    24     5 
   19    17    24     5 
   21    20    22     5 
   21    20    23     5 
   21    20    24     5 
   22    20    23     5 
   22    20    24     5 
   23    20    24     5 
   20    23    25     5 
   17    24    20     5 
   23    25    26     5 
   23    25    27     5 
   23    25    28     5 
   26    25    27     5 
   26    25    28     5 
   27    25    28     5 
   25    28    29     5 
   25    28    30     5 
   25    28    36     5 
   29    28    30     5 
   29    28    36     5 
   30    28    36     5 
   28    30    31     5 
   30    31    32     5 
   30    31    33     5 
   32    31    33     5 
   31    33    34     5 
   31    33    35     5 
   31    33    45     5 
   34    33    35     5 
   34    33    45     5 
   35    33    45     5 
   28    36    37     5 
   28    36    38     5 
   28    36    39     5 
   37    36    38     5 
   37    36    39     5 
   38    36    39     5 
   36    39    40     5 
   39    40    41     5 
   39    40    42     5 
   41    40    42     5 
   40    42    43     5 
   40    42    44     5 
   40    42    70     5 
   43    42    44     5 
   43    42    70     5 
   44    42    70     5 
   33    45    46     5 
   33    45    47     5 
   33    45    48     5 
   46    45    47     5 
   46    45    48     5 
   47    45    48     5 
   45    48    49     5 
   45    48    50     5 
   45    48    51     5 
   49    48    50     5 
   49    48    51     5 
   50    48    51     5 
   48    51    52     5 
   48    51    53     5 
   48    51    54     5 
   52    51    53     5 
   52    51    54     5 
   53    51    54     5 
   51    54    55     5 
   51    54    56     5 
   51    54    57     5 
   55    54    56     5 
   55    54    57     5 
   56    54    57     5 
   54    57    58     5 
   54    57    59     5 
   54    57    60     5 
   58    57    59     5 
   58    57    60     5 
   59    57    60     5 
   57    60    61     5 
   57    60    62     5 
   57    60    63     5 
   61    60    62     5 
   61    60    63     5 
   62    60    63     5 
   60    63    64     5 
   60    63    65     5 
   60    63    66     5 
   64    63    65     5 
   64    63    66     5 
   65    63    66     5 
   63    66    67     5 
   63    66    68     5 
   63    66    69     5 
   67    66    68     5 
   67    66    69     5 
   68    66    69     5 
   42    70    71     5 
   42    70    72     5 
   42    70    73     5 
   71    70    72     5 
   71    70    73     5 
   72    70    73     5 
   70    73    74     5 
   70    73    75     5 
   70    73    76     5 
   74    73    75     5 
   74    73    76     5 
   75    73    76     5 
   73    76    77     5 
   73    76    78     5 
   73    76    79     5 
   77    76    78     5 
   77    76    79     5 
   78    76    79     5 
   76    79    80     5 
   76    79    81     5 
   76    79    82     5 
   80    79    81     5 
   80    79    82     5 
   81    79    82     5 
   79    82    83     5 
   79    82    84     5 
   79    82    85     5 
   83    82    84     5 
   83    82    85     5 
   84    82    85     5 
   82    85    86     5 
   82    85    87     5 
   82    85    88     5 
   86    85    87     5 
   86    85    88     5 
   87    85    88     5 
   85    88    89     5 
   85    88    90     5 
   85    88    91     5 
   89    88    90     5 
   89    88    91     5 
   90    88    91     5 
   88    91    92     5 
   88    91    93     5 
   88    91    94     5 
   92    91    93     5 
   92    91    94     5 
   93    91    94     5 

[ dihedrals ]
;  ai    aj    ak    al funct            c0            c1            c2            c3            c4            c5
    6     1     2     3     9 
    6     1     2     4     9 
    6     1     2     5     9 
   10     1     2     3     9 
   10     1     2     4     9 
   10     1     2     5     9 
   14     1     2     3     9 
   14     1     2     4     9 
   14     1     2     5     9 
    2     1     6     7     9 
    2     1     6     8     9 
    2     1     6     9     9 
   10     1     6     7     9 
   10     1     6     8     9 
   10     1     6     9     9 
   14     1     6     7     9 
   14     1     6     8     9 
   14     1     6     9     9 
    2     1    10    11     9 
    2     1    10    12     9 
    2     1    10    13     9 
    6     1    10    11     9 
    6     1    10    12     9 
    6     1    10    13     9 
   14     1    10    11     9 
   14     1    10    12     9 
   14     1    10    13     9 
    2     1    14    15     9 
    2     1    14    16     9 
    2     1    14    17     9 
    6     1    14    15     9 
    6     1    14    16     9 
    6     1    14    17     9 
   10     1    14    15     9 
   10     1    14    16     9 
   10     1    14    17     9 
    1    14    17    18     9 
    1    14    17    19     9 
    1    14    17    24     9 
   15    14    17    18     9 
   15    14    17    19     9 
   15    14    17    24     9 
   16    14    17    18     9 
   16    14    17    19     9 
   16    14    17    24     9 
   14    17    24    20     9 
   18    17    24    20     9 
   19    17    24    20     9 
   21    20    23    25     9 
   22    20    23    25     9 
   24    20    23    25     9 
   21    20    24    17     9 
   22    20    24    17     9 
   23    20    24    17     9 
   20    23    25    26     9 
   20    23    25    27     9 
   20    23    25    28     9 
   23    25    28    29     9 
   23    25    28    30     9 
   23    25    28    36     9 
   26    25    28    29     9 
   26    25    28    30     9 
   26    25    28    36     9 
   27    25    28    29     9 
   27    25    28    30     9 
   27    25    28    36     9 
   25    28    30    31     9 
   29    28    30    31     9 
   36    28    30    31     9 
   25    28    36    37     9 
   25    28    36    38     9 
   25    28    36    39     9 
   29    28    36    37     9 
   29    28    36    38     9 
   29    28    36    39     9 
   30    28    36    37     9 
   30    28    36    38     9 
   30    28    36    39     9 
   28    30    31    32     9 
   28    30    31    33     9 
   30    31    33    34     9 
   30    31    33    35     9 
   30    31    33    45     9 
   32    31    33    34     9 
   32    31    33    35     9 
   32    31    33    45     9 
   31    33    45    46     9 
   31    33    45    47     9 
   31    33    45    48     9 
   34    33    45    46     9 
   34    33    45    47     9 
   34    33    45    48     9 
   35    33    45    46     9 
   35    33    45    47     9 
   35    33    45    48     9 
   28    36    39    40     9 
   37    36    39    40     9 
   38    36    39    40     9 
   36    39    40    41     9 
   36    39    40    42     9 
   39    40    42    43     9 
   39    40    42    44     9 
   39    40    42    70     9 
   41    40    42    43     9 
   41    40    42    44     9 
   41    40    42    70     9 
   40    42    70    71     9 
   40    42    70    72     9 
   40    42    70    73     9 
   43    42    70    71     9 
   43    42    70    72     9 
   43    42    70    73     9 
   44    42    70    71     9 
   44    42    70    72     9 
   44    42    70    73     9 
   33    45    48    49     9 
   33    45    48    50     9 
   33    45    48    51     9 
   46    45    48    49     9 
   46    45    48    50     9 
   46    45    48    51     9 
   47    45    48    49     9 
   47    45    48    50     9 
   47    45    48    51     9 
   45    48    51    52     9 
   45    48    51    53     9 
   45    48    51    54     9 
   49    48    51    52     9 
   49    48    51    53     9 
   49    48    51    54     9 
   50    48    51    52     9 
   50    48    51    53     9 
   50    48    51    54     9 
   48    51    54    55     9 
   48    51    54    56     9 
   48    51    54    57     9 
   52    51    54    55     9 
   52    51    54    56     9 
   52    51    54    57     9 
   53    51    54    55     9 
   53    51    54    56     9 
   53    51    54    57     9 
   51    54    57    58     9 
   51    54    57    59     9 
   51    54    57    60     9 
   55    54    57    58     9 
   55    54    57    59     9 
   55    54    57    60     9 
   56    54    57    58     9 
   56    54    57    59     9 
   56    54    57    60     9 
   54    57    60    61     9 
   54    57    60    62     9 
   54    57    60    63     9 
   58    57    60    61     9 
   58    57    60    62     9 
   58    57    60    63     9 
   59    57    60    61     9 
   59    57    60    62     9 
   59    57    60    63     9 
   57    60    63    64     9 
   57    60    63    65     9 
   57    60    63    66     9 
   61    60    63    64     9 
   61    60    63    65     9 
   61    60    63    66     9 
   62    60    63    64     9 
   62    60    63    65     9 
   62    60    63    66     9 
   60    63    66    67     9 
   60    63    66    68     9 
   60    63    66    69     9 
   64    63    66    67     9 
   64    63    66    68     9 
   64    63    66    69     9 
   65    63    66    67     9 
   65    63    66    68     9 
   65    63    66    69     9 
   42    70    73    74     9 
   42    70    73    75     9 
   42    70    73    76     9 
   71    70    73    74     9 
   71    70    73    75     9 
   71    70    73    76     9 
   72    70    73    74     9 
   72    70    73    75     9 
   72    70    73    76     9 
   70    73    76    77     9 
   70    73    76    78     9 
   70    73    76    79     9 
   74    73    76    77     9 
   74    73    76    78     9 
   74    73    76    79     9 
   75    73    76    77     9 
   75    73    76    78     9 
   75    73    76    79     9 
   73    76    79    80     9 
   73    76    79    81     9 
   73    76    79    82     9 
   77    76    79    80     9 
   77    76    79    81     9 
   77    76    79    82     9 
   78    76    79    80     9 
   78    76    79    81     9 
   78    76    79    82     9 
   76    79    82    83     9 
   76    79    82    84     9 
   76    79    82    85     9 
   80    79    82    83     9 
   80    79    82    84     9 
   80    79    82    85     9 
   81    79    82    83     9 
   81    79    82    84     9 
   81    79    82    85     9 
   79    82    85    86     9 
   79    82    85    87     9 
   79    82    85    88     9 
   83    82    85    86     9 
   83    82    85    87     9 
   83    82    85    88     9 
   84    82    85    86     9 
   84    82    85    87     9 
   84    82    85    88     9 
   82    85    88    89     9 
   82    85    88    90     9 
   82    85    88    91     9 
   86    85    88    89     9 
   86    85    88    90     9 
   86    85    88    91     9 
   87    85    88    89     9 
   87    85    88    90     9 
   87    85    88    91     9 
   85    88    91    92     9 
   85    88    91    93     9 
   85    88    91    94     9 
   89    88    91    92     9 
   89    88    91    93     9 
   89    88    91    94     9 
   90    88    91    92     9 
   90    88    91    93     9 
   90    88    91    94     9 

[ dihedrals ]
;  ai    aj    ak    al funct            c0            c1            c2            c3
   31    30    33    32     2 
   40    39    42    41     2 

; Include Position restraint file
#ifdef POSRES
#include "DJPC_posre.itp"
#endif

