;
;	File '../cg2at-ccd2md/database/fragments/martini_3-1_new_lipidome_charmm36/non_protein/POEC/POEC.top' was generated
;	By user: mztrxr (16752)
;	On host: srgwzze.scrtp.warwick.ac.uk
;	At date: Thu Jul 16 13:27:23 2026
;
;	This is a standalone topology file
;
;	Created by:
;	              :-) GROMACS - gmx pdb2gmx, 2025.4-conda_forge (-:
;	
;	Executable:   /storage/chem/lfsmgr/SRG/mambaforge/envs/gmx2025.4/bin.AVX2_256/gmx
;	Data prefix:  /storage/chem/lfsmgr/SRG/mambaforge/envs/gmx2025.4
;	Working dir:  /home/lifesci/mztrxr/Documents/CCD2MD/CCD2AT/add_molecules
;	Command line:
;	  gmx pdb2gmx -ff charmm36-ccd2md -water none -f ../../charmm-gui-lipids-sterols-detergents/poec.pdb -i ../cg2at-ccd2md/database/fragments/martini_3-1_new_lipidome_charmm36/non_protein/POEC/POEC_posre.itp -p ../cg2at-ccd2md/database/fragments/martini_3-1_new_lipidome_charmm36/non_protein/POEC/POEC.top
;	Force field was read from current directory or a relative path - path added.
;

; Include forcefield parameters
#include "./charmm36-ccd2md.ff/forcefield.itp"

[ moleculetype ]
; Name            nrexcl
Other               3

[ atoms ]
;   nr       type  resnr residue  atom   cgnr     charge       mass  typeB    chargeB      massB
; residue   1 POEC rtp POEC q  0.0
     1        NTL      1   POEC      N      1       -0.6     14.007
     2       CTL2      1   POEC    C12      1       -0.1     12.011
     3         HL      1   POEC   H12A      1       0.25      1.008
     4         HL      1   POEC   H12B      1       0.25      1.008
     5       CTL5      1   POEC    C13      1      -0.35     12.011
     6         HL      1   POEC   H13A      1       0.25      1.008
     7         HL      1   POEC   H13B      1       0.25      1.008
     8         HL      1   POEC   H13C      1       0.25      1.008
     9       CTL5      1   POEC    C14      1      -0.35     12.011
    10         HL      1   POEC   H14A      1       0.25      1.008
    11         HL      1   POEC   H14B      1       0.25      1.008
    12         HL      1   POEC   H14C      1       0.25      1.008
    13       CTL5      1   POEC    C15      1      -0.35     12.011
    14         HL      1   POEC   H15A      1       0.25      1.008
    15         HL      1   POEC   H15B      1       0.25      1.008
    16         HL      1   POEC   H15C      1       0.25      1.008
    17       CTL2      1   POEC    C11      2      -0.08     12.011
    18       HAL2      1   POEC   H11A      2       0.09      1.008
    19       HAL2      1   POEC   H11B      2       0.09      1.008
    20         PL      1   POEC      P      2        1.5     30.974
    21        O2L      1   POEC    O13      2      -0.78    15.9994
    22        O2L      1   POEC    O14      2      -0.78    15.9994
    23       OSLP      1   POEC    O12      2      -0.57    15.9994
    24       OSLP      1   POEC    O11      2      -0.57    15.9994
    25       CTL2      1   POEC     C1      2      -0.08     12.011
    26       HAL2      1   POEC     HA      2       0.09      1.008
    27       HAL2      1   POEC     HB      2       0.09      1.008
    28       CTL1      1   POEC     C2      3       0.13     12.011
    29       HAL1      1   POEC     HS      3       0.01      1.008
    30      OG301      1   POEC    O21      3      -0.56    15.9994
    31       CTL2      1   POEC    C21      3        0.4     12.011
    32       HAL2      1   POEC    H1R      3       0.01      1.008
    33       HAL2      1   POEC    H1S      3       0.01      1.008
    34       CTL2      1   POEC    C22      3      -0.18     12.011
    35       HAL2      1   POEC    H2R      3       0.09      1.008
    36       HAL2      1   POEC    H2S      3       0.09      1.008
    37       CTL2      1   POEC     C3      4       0.08     12.011
    38       HAL2      1   POEC     HX      4       0.02      1.008
    39       HAL2      1   POEC     HY      4       0.02      1.008
    40      OG301      1   POEC    O31      4      -0.56    15.9994
    41       CTL2      1   POEC    C31      4        0.4     12.011
    42       HAL2      1   POEC    H1X      4       0.02      1.008
    43       HAL2      1   POEC    H1Y      4       0.02      1.008
    44       CTL2      1   POEC    C32      4      -0.18     12.011
    45       HAL2      1   POEC    H2X      4       0.09      1.008
    46       HAL2      1   POEC    H2Y      4       0.09      1.008
    47       CTL2      1   POEC    C23      5      -0.18     12.011
    48       HAL2      1   POEC    H3R      5       0.09      1.008
    49       HAL2      1   POEC    H3S      5       0.09      1.008
    50       CTL2      1   POEC    C24      6      -0.18     12.011
    51       HAL2      1   POEC    H4R      6       0.09      1.008
    52       HAL2      1   POEC    H4S      6       0.09      1.008
    53       CTL2      1   POEC    C25      7      -0.18     12.011
    54       HAL2      1   POEC    H5R      7       0.09      1.008
    55       HAL2      1   POEC    H5S      7       0.09      1.008
    56       CTL2      1   POEC    C26      8      -0.18     12.011
    57       HAL2      1   POEC    H6R      8       0.09      1.008
    58       HAL2      1   POEC    H6S      8       0.09      1.008
    59       CTL2      1   POEC    C27      9      -0.18     12.011
    60       HAL2      1   POEC    H7R      9       0.09      1.008
    61       HAL2      1   POEC    H7S      9       0.09      1.008
    62       CTL2      1   POEC    C28     10      -0.18     12.011
    63       HAL2      1   POEC    H8R     10       0.09      1.008
    64       HAL2      1   POEC    H8S     10       0.09      1.008
    65       CEL1      1   POEC    C29     11      -0.15     12.011
    66       HEL1      1   POEC    H91     11       0.15      1.008
    67       CEL1      1   POEC   C210     12      -0.15     12.011
    68       HEL1      1   POEC   H101     12       0.15      1.008
    69       CTL2      1   POEC   C211     13      -0.18     12.011
    70       HAL2      1   POEC   H11R     13       0.09      1.008
    71       HAL2      1   POEC   H11S     13       0.09      1.008
    72       CTL2      1   POEC   C212     14      -0.18     12.011
    73       HAL2      1   POEC   H12R     14       0.09      1.008
    74       HAL2      1   POEC   H12S     14       0.09      1.008
    75       CTL2      1   POEC   C213     15      -0.18     12.011
    76       HAL2      1   POEC   H13R     15       0.09      1.008
    77       HAL2      1   POEC   H13S     15       0.09      1.008
    78       CTL2      1   POEC   C214     16      -0.18     12.011
    79       HAL2      1   POEC   H14R     16       0.09      1.008
    80       HAL2      1   POEC   H14S     16       0.09      1.008
    81       CTL2      1   POEC   C215     17      -0.18     12.011
    82       HAL2      1   POEC   H15R     17       0.09      1.008
    83       HAL2      1   POEC   H15S     17       0.09      1.008
    84       CTL2      1   POEC   C216     18      -0.18     12.011
    85       HAL2      1   POEC   H16R     18       0.09      1.008
    86       HAL2      1   POEC   H16S     18       0.09      1.008
    87       CTL2      1   POEC   C217     19      -0.18     12.011
    88       HAL2      1   POEC   H17R     19       0.09      1.008
    89       HAL2      1   POEC   H17S     19       0.09      1.008
    90       CTL3      1   POEC   C218     20      -0.27     12.011
    91       HAL3      1   POEC   H18R     20       0.09      1.008
    92       HAL3      1   POEC   H18S     20       0.09      1.008
    93       HAL3      1   POEC   H18T     20       0.09      1.008
    94       CTL2      1   POEC    C33     21      -0.18     12.011
    95       HAL2      1   POEC    H3X     21       0.09      1.008
    96       HAL2      1   POEC    H3Y     21       0.09      1.008
    97       CTL2      1   POEC    C34     22      -0.18     12.011
    98       HAL2      1   POEC    H4X     22       0.09      1.008
    99       HAL2      1   POEC    H4Y     22       0.09      1.008
   100       CTL2      1   POEC    C35     23      -0.18     12.011
   101       HAL2      1   POEC    H5X     23       0.09      1.008
   102       HAL2      1   POEC    H5Y     23       0.09      1.008
   103       CTL2      1   POEC    C36     24      -0.18     12.011
   104       HAL2      1   POEC    H6X     24       0.09      1.008
   105       HAL2      1   POEC    H6Y     24       0.09      1.008
   106       CTL2      1   POEC    C37     25      -0.18     12.011
   107       HAL2      1   POEC    H7X     25       0.09      1.008
   108       HAL2      1   POEC    H7Y     25       0.09      1.008
   109       CTL2      1   POEC    C38     26      -0.18     12.011
   110       HAL2      1   POEC    H8X     26       0.09      1.008
   111       HAL2      1   POEC    H8Y     26       0.09      1.008
   112       CTL2      1   POEC    C39     27      -0.18     12.011
   113       HAL2      1   POEC    H9X     27       0.09      1.008
   114       HAL2      1   POEC    H9Y     27       0.09      1.008
   115       CTL2      1   POEC   C310     28      -0.18     12.011
   116       HAL2      1   POEC   H10X     28       0.09      1.008
   117       HAL2      1   POEC   H10Y     28       0.09      1.008
   118       CTL2      1   POEC   C311     29      -0.18     12.011
   119       HAL2      1   POEC   H11X     29       0.09      1.008
   120       HAL2      1   POEC   H11Y     29       0.09      1.008
   121       CTL2      1   POEC   C312     30      -0.18     12.011
   122       HAL2      1   POEC   H12X     30       0.09      1.008
   123       HAL2      1   POEC   H12Y     30       0.09      1.008
   124       CTL2      1   POEC   C313     31      -0.18     12.011
   125       HAL2      1   POEC   H13X     31       0.09      1.008
   126       HAL2      1   POEC   H13Y     31       0.09      1.008
   127       CTL2      1   POEC   C314     32      -0.18     12.011
   128       HAL2      1   POEC   H14X     32       0.09      1.008
   129       HAL2      1   POEC   H14Y     32       0.09      1.008
   130       CTL2      1   POEC   C315     33      -0.18     12.011
   131       HAL2      1   POEC   H15X     33       0.09      1.008
   132       HAL2      1   POEC   H15Y     33       0.09      1.008
   133       CTL3      1   POEC   C316     34      -0.27     12.011
   134       HAL3      1   POEC   H16X     34       0.09      1.008
   135       HAL3      1   POEC   H16Y     34       0.09      1.008
   136       HAL3      1   POEC   H16Z     34       0.09      1.008   ; qtot 0

[ bonds ]
;  ai    aj funct            c0            c1            c2            c3
    1     2     1 
    1     5     1 
    1     9     1 
    1    13     1 
    2     3     1 
    2     4     1 
    2    17     1 
    5     6     1 
    5     7     1 
    5     8     1 
    9    10     1 
    9    11     1 
    9    12     1 
   13    14     1 
   13    15     1 
   13    16     1 
   17    18     1 
   17    19     1 
   17    23     1 
   20    21     1 
   20    22     1 
   20    23     1 
   20    24     1 
   24    25     1 
   25    26     1 
   25    27     1 
   25    28     1 
   28    29     1 
   28    30     1 
   28    37     1 
   30    31     1 
   31    32     1 
   31    33     1 
   31    34     1 
   34    35     1 
   34    36     1 
   34    47     1 
   37    38     1 
   37    39     1 
   37    40     1 
   40    41     1 
   41    42     1 
   41    43     1 
   41    44     1 
   44    45     1 
   44    46     1 
   44    94     1 
   47    48     1 
   47    49     1 
   47    50     1 
   50    51     1 
   50    52     1 
   50    53     1 
   53    54     1 
   53    55     1 
   53    56     1 
   56    57     1 
   56    58     1 
   56    59     1 
   59    60     1 
   59    61     1 
   59    62     1 
   62    63     1 
   62    64     1 
   62    65     1 
   65    66     1 
   65    67     1 
   67    68     1 
   67    69     1 
   69    70     1 
   69    71     1 
   69    72     1 
   72    73     1 
   72    74     1 
   72    75     1 
   75    76     1 
   75    77     1 
   75    78     1 
   78    79     1 
   78    80     1 
   78    81     1 
   81    82     1 
   81    83     1 
   81    84     1 
   84    85     1 
   84    86     1 
   84    87     1 
   87    88     1 
   87    89     1 
   87    90     1 
   90    91     1 
   90    92     1 
   90    93     1 
   94    95     1 
   94    96     1 
   94    97     1 
   97    98     1 
   97    99     1 
   97   100     1 
  100   101     1 
  100   102     1 
  100   103     1 
  103   104     1 
  103   105     1 
  103   106     1 
  106   107     1 
  106   108     1 
  106   109     1 
  109   110     1 
  109   111     1 
  109   112     1 
  112   113     1 
  112   114     1 
  112   115     1 
  115   116     1 
  115   117     1 
  115   118     1 
  118   119     1 
  118   120     1 
  118   121     1 
  121   122     1 
  121   123     1 
  121   124     1 
  124   125     1 
  124   126     1 
  124   127     1 
  127   128     1 
  127   129     1 
  127   130     1 
  130   131     1 
  130   132     1 
  130   133     1 
  133   134     1 
  133   135     1 
  133   136     1 

[ pairs ]
;  ai    aj funct            c0            c1            c2            c3
    1    18     1 
    1    19     1 
    1    23     1 
    2     6     1 
    2     7     1 
    2     8     1 
    2    10     1 
    2    11     1 
    2    12     1 
    2    14     1 
    2    15     1 
    2    16     1 
    2    20     1 
    3     5     1 
    3     9     1 
    3    13     1 
    3    18     1 
    3    19     1 
    3    23     1 
    4     5     1 
    4     9     1 
    4    13     1 
    4    18     1 
    4    19     1 
    4    23     1 
    5    10     1 
    5    11     1 
    5    12     1 
    5    14     1 
    5    15     1 
    5    16     1 
    5    17     1 
    6     9     1 
    6    13     1 
    7     9     1 
    7    13     1 
    8     9     1 
    8    13     1 
    9    14     1 
    9    15     1 
    9    16     1 
    9    17     1 
   10    13     1 
   11    13     1 
   12    13     1 
   13    17     1 
   17    21     1 
   17    22     1 
   17    24     1 
   18    20     1 
   19    20     1 
   20    26     1 
   20    27     1 
   20    28     1 
   21    25     1 
   22    25     1 
   23    25     1 
   24    29     1 
   24    30     1 
   24    37     1 
   25    31     1 
   25    38     1 
   25    39     1 
   25    40     1 
   26    29     1 
   26    30     1 
   26    37     1 
   27    29     1 
   27    30     1 
   27    37     1 
   28    32     1 
   28    33     1 
   28    34     1 
   28    41     1 
   29    31     1 
   29    38     1 
   29    39     1 
   29    40     1 
   30    35     1 
   30    36     1 
   30    38     1 
   30    39     1 
   30    40     1 
   30    47     1 
   31    37     1 
   31    48     1 
   31    49     1 
   31    50     1 
   32    35     1 
   32    36     1 
   32    47     1 
   33    35     1 
   33    36     1 
   33    47     1 
   34    51     1 
   34    52     1 
   34    53     1 
   35    48     1 
   35    49     1 
   35    50     1 
   36    48     1 
   36    49     1 
   36    50     1 
   37    42     1 
   37    43     1 
   37    44     1 
   38    41     1 
   39    41     1 
   40    45     1 
   40    46     1 
   40    94     1 
   41    95     1 
   41    96     1 
   41    97     1 
   42    45     1 
   42    46     1 
   42    94     1 
   43    45     1 
   43    46     1 
   43    94     1 
   44    98     1 
   44    99     1 
   44   100     1 
   45    95     1 
   45    96     1 
   45    97     1 
   46    95     1 
   46    96     1 
   46    97     1 
   47    54     1 
   47    55     1 
   47    56     1 
   48    51     1 
   48    52     1 
   48    53     1 
   49    51     1 
   49    52     1 
   49    53     1 
   50    57     1 
   50    58     1 
   50    59     1 
   51    54     1 
   51    55     1 
   51    56     1 
   52    54     1 
   52    55     1 
   52    56     1 
   53    60     1 
   53    61     1 
   53    62     1 
   54    57     1 
   54    58     1 
   54    59     1 
   55    57     1 
   55    58     1 
   55    59     1 
   56    63     1 
   56    64     1 
   56    65     1 
   57    60     1 
   57    61     1 
   57    62     1 
   58    60     1 
   58    61     1 
   58    62     1 
   59    66     1 
   59    67     1 
   60    63     1 
   60    64     1 
   60    65     1 
   61    63     1 
   61    64     1 
   61    65     1 
   62    68     1 
   62    69     1 
   63    66     1 
   63    67     1 
   64    66     1 
   64    67     1 
   65    70     1 
   65    71     1 
   65    72     1 
   66    68     1 
   66    69     1 
   67    73     1 
   67    74     1 
   67    75     1 
   68    70     1 
   68    71     1 
   68    72     1 
   69    76     1 
   69    77     1 
   69    78     1 
   70    73     1 
   70    74     1 
   70    75     1 
   71    73     1 
   71    74     1 
   71    75     1 
   72    79     1 
   72    80     1 
   72    81     1 
   73    76     1 
   73    77     1 
   73    78     1 
   74    76     1 
   74    77     1 
   74    78     1 
   75    82     1 
   75    83     1 
   75    84     1 
   76    79     1 
   76    80     1 
   76    81     1 
   77    79     1 
   77    80     1 
   77    81     1 
   78    85     1 
   78    86     1 
   78    87     1 
   79    82     1 
   79    83     1 
   79    84     1 
   80    82     1 
   80    83     1 
   80    84     1 
   81    88     1 
   81    89     1 
   81    90     1 
   82    85     1 
   82    86     1 
   82    87     1 
   83    85     1 
   83    86     1 
   83    87     1 
   84    91     1 
   84    92     1 
   84    93     1 
   85    88     1 
   85    89     1 
   85    90     1 
   86    88     1 
   86    89     1 
   86    90     1 
   88    91     1 
   88    92     1 
   88    93     1 
   89    91     1 
   89    92     1 
   89    93     1 
   94   101     1 
   94   102     1 
   94   103     1 
   95    98     1 
   95    99     1 
   95   100     1 
   96    98     1 
   96    99     1 
   96   100     1 
   97   104     1 
   97   105     1 
   97   106     1 
   98   101     1 
   98   102     1 
   98   103     1 
   99   101     1 
   99   102     1 
   99   103     1 
  100   107     1 
  100   108     1 
  100   109     1 
  101   104     1 
  101   105     1 
  101   106     1 
  102   104     1 
  102   105     1 
  102   106     1 
  103   110     1 
  103   111     1 
  103   112     1 
  104   107     1 
  104   108     1 
  104   109     1 
  105   107     1 
  105   108     1 
  105   109     1 
  106   113     1 
  106   114     1 
  106   115     1 
  107   110     1 
  107   111     1 
  107   112     1 
  108   110     1 
  108   111     1 
  108   112     1 
  109   116     1 
  109   117     1 
  109   118     1 
  110   113     1 
  110   114     1 
  110   115     1 
  111   113     1 
  111   114     1 
  111   115     1 
  112   119     1 
  112   120     1 
  112   121     1 
  113   116     1 
  113   117     1 
  113   118     1 
  114   116     1 
  114   117     1 
  114   118     1 
  115   122     1 
  115   123     1 
  115   124     1 
  116   119     1 
  116   120     1 
  116   121     1 
  117   119     1 
  117   120     1 
  117   121     1 
  118   125     1 
  118   126     1 
  118   127     1 
  119   122     1 
  119   123     1 
  119   124     1 
  120   122     1 
  120   123     1 
  120   124     1 
  121   128     1 
  121   129     1 
  121   130     1 
  122   125     1 
  122   126     1 
  122   127     1 
  123   125     1 
  123   126     1 
  123   127     1 
  124   131     1 
  124   132     1 
  124   133     1 
  125   128     1 
  125   129     1 
  125   130     1 
  126   128     1 
  126   129     1 
  126   130     1 
  127   134     1 
  127   135     1 
  127   136     1 
  128   131     1 
  128   132     1 
  128   133     1 
  129   131     1 
  129   132     1 
  129   133     1 
  131   134     1 
  131   135     1 
  131   136     1 
  132   134     1 
  132   135     1 
  132   136     1 

[ angles ]
;  ai    aj    ak funct            c0            c1            c2            c3
    2     1     5     5 
    2     1     9     5 
    2     1    13     5 
    5     1     9     5 
    5     1    13     5 
    9     1    13     5 
    1     2     3     5 
    1     2     4     5 
    1     2    17     5 
    3     2     4     5 
    3     2    17     5 
    4     2    17     5 
    1     5     6     5 
    1     5     7     5 
    1     5     8     5 
    6     5     7     5 
    6     5     8     5 
    7     5     8     5 
    1     9    10     5 
    1     9    11     5 
    1     9    12     5 
   10     9    11     5 
   10     9    12     5 
   11     9    12     5 
    1    13    14     5 
    1    13    15     5 
    1    13    16     5 
   14    13    15     5 
   14    13    16     5 
   15    13    16     5 
    2    17    18     5 
    2    17    19     5 
    2    17    23     5 
   18    17    19     5 
   18    17    23     5 
   19    17    23     5 
   21    20    22     5 
   21    20    23     5 
   21    20    24     5 
   22    20    23     5 
   22    20    24     5 
   23    20    24     5 
   17    23    20     5 
   20    24    25     5 
   24    25    26     5 
   24    25    27     5 
   24    25    28     5 
   26    25    27     5 
   26    25    28     5 
   27    25    28     5 
   25    28    29     5 
   25    28    30     5 
   25    28    37     5 
   29    28    30     5 
   29    28    37     5 
   30    28    37     5 
   28    30    31     5 
   30    31    32     5 
   30    31    33     5 
   30    31    34     5 
   32    31    33     5 
   32    31    34     5 
   33    31    34     5 
   31    34    35     5 
   31    34    36     5 
   31    34    47     5 
   35    34    36     5 
   35    34    47     5 
   36    34    47     5 
   28    37    38     5 
   28    37    39     5 
   28    37    40     5 
   38    37    39     5 
   38    37    40     5 
   39    37    40     5 
   37    40    41     5 
   40    41    42     5 
   40    41    43     5 
   40    41    44     5 
   42    41    43     5 
   42    41    44     5 
   43    41    44     5 
   41    44    45     5 
   41    44    46     5 
   41    44    94     5 
   45    44    46     5 
   45    44    94     5 
   46    44    94     5 
   34    47    48     5 
   34    47    49     5 
   34    47    50     5 
   48    47    49     5 
   48    47    50     5 
   49    47    50     5 
   47    50    51     5 
   47    50    52     5 
   47    50    53     5 
   51    50    52     5 
   51    50    53     5 
   52    50    53     5 
   50    53    54     5 
   50    53    55     5 
   50    53    56     5 
   54    53    55     5 
   54    53    56     5 
   55    53    56     5 
   53    56    57     5 
   53    56    58     5 
   53    56    59     5 
   57    56    58     5 
   57    56    59     5 
   58    56    59     5 
   56    59    60     5 
   56    59    61     5 
   56    59    62     5 
   60    59    61     5 
   60    59    62     5 
   61    59    62     5 
   59    62    63     5 
   59    62    64     5 
   59    62    65     5 
   63    62    64     5 
   63    62    65     5 
   64    62    65     5 
   62    65    66     5 
   62    65    67     5 
   66    65    67     5 
   65    67    68     5 
   65    67    69     5 
   68    67    69     5 
   67    69    70     5 
   67    69    71     5 
   67    69    72     5 
   70    69    71     5 
   70    69    72     5 
   71    69    72     5 
   69    72    73     5 
   69    72    74     5 
   69    72    75     5 
   73    72    74     5 
   73    72    75     5 
   74    72    75     5 
   72    75    76     5 
   72    75    77     5 
   72    75    78     5 
   76    75    77     5 
   76    75    78     5 
   77    75    78     5 
   75    78    79     5 
   75    78    80     5 
   75    78    81     5 
   79    78    80     5 
   79    78    81     5 
   80    78    81     5 
   78    81    82     5 
   78    81    83     5 
   78    81    84     5 
   82    81    83     5 
   82    81    84     5 
   83    81    84     5 
   81    84    85     5 
   81    84    86     5 
   81    84    87     5 
   85    84    86     5 
   85    84    87     5 
   86    84    87     5 
   84    87    88     5 
   84    87    89     5 
   84    87    90     5 
   88    87    89     5 
   88    87    90     5 
   89    87    90     5 
   87    90    91     5 
   87    90    92     5 
   87    90    93     5 
   91    90    92     5 
   91    90    93     5 
   92    90    93     5 
   44    94    95     5 
   44    94    96     5 
   44    94    97     5 
   95    94    96     5 
   95    94    97     5 
   96    94    97     5 
   94    97    98     5 
   94    97    99     5 
   94    97   100     5 
   98    97    99     5 
   98    97   100     5 
   99    97   100     5 
   97   100   101     5 
   97   100   102     5 
   97   100   103     5 
  101   100   102     5 
  101   100   103     5 
  102   100   103     5 
  100   103   104     5 
  100   103   105     5 
  100   103   106     5 
  104   103   105     5 
  104   103   106     5 
  105   103   106     5 
  103   106   107     5 
  103   106   108     5 
  103   106   109     5 
  107   106   108     5 
  107   106   109     5 
  108   106   109     5 
  106   109   110     5 
  106   109   111     5 
  106   109   112     5 
  110   109   111     5 
  110   109   112     5 
  111   109   112     5 
  109   112   113     5 
  109   112   114     5 
  109   112   115     5 
  113   112   114     5 
  113   112   115     5 
  114   112   115     5 
  112   115   116     5 
  112   115   117     5 
  112   115   118     5 
  116   115   117     5 
  116   115   118     5 
  117   115   118     5 
  115   118   119     5 
  115   118   120     5 
  115   118   121     5 
  119   118   120     5 
  119   118   121     5 
  120   118   121     5 
  118   121   122     5 
  118   121   123     5 
  118   121   124     5 
  122   121   123     5 
  122   121   124     5 
  123   121   124     5 
  121   124   125     5 
  121   124   126     5 
  121   124   127     5 
  125   124   126     5 
  125   124   127     5 
  126   124   127     5 
  124   127   128     5 
  124   127   129     5 
  124   127   130     5 
  128   127   129     5 
  128   127   130     5 
  129   127   130     5 
  127   130   131     5 
  127   130   132     5 
  127   130   133     5 
  131   130   132     5 
  131   130   133     5 
  132   130   133     5 
  130   133   134     5 
  130   133   135     5 
  130   133   136     5 
  134   133   135     5 
  134   133   136     5 
  135   133   136     5 

[ dihedrals ]
;  ai    aj    ak    al funct            c0            c1            c2            c3            c4            c5
    5     1     2     3     9 
    5     1     2     4     9 
    5     1     2    17     9 
    9     1     2     3     9 
    9     1     2     4     9 
    9     1     2    17     9 
   13     1     2     3     9 
   13     1     2     4     9 
   13     1     2    17     9 
    2     1     5     6     9 
    2     1     5     7     9 
    2     1     5     8     9 
    9     1     5     6     9 
    9     1     5     7     9 
    9     1     5     8     9 
   13     1     5     6     9 
   13     1     5     7     9 
   13     1     5     8     9 
    2     1     9    10     9 
    2     1     9    11     9 
    2     1     9    12     9 
    5     1     9    10     9 
    5     1     9    11     9 
    5     1     9    12     9 
   13     1     9    10     9 
   13     1     9    11     9 
   13     1     9    12     9 
    2     1    13    14     9 
    2     1    13    15     9 
    2     1    13    16     9 
    5     1    13    14     9 
    5     1    13    15     9 
    5     1    13    16     9 
    9     1    13    14     9 
    9     1    13    15     9 
    9     1    13    16     9 
    1     2    17    18     9 
    1     2    17    19     9 
    1     2    17    23     9 
    3     2    17    18     9 
    3     2    17    19     9 
    3     2    17    23     9 
    4     2    17    18     9 
    4     2    17    19     9 
    4     2    17    23     9 
    2    17    23    20     9 
   18    17    23    20     9 
   19    17    23    20     9 
   21    20    23    17     9 
   22    20    23    17     9 
   24    20    23    17     9 
   21    20    24    25     9 
   22    20    24    25     9 
   23    20    24    25     9 
   20    24    25    26     9 
   20    24    25    27     9 
   20    24    25    28     9 
   24    25    28    29     9 
   24    25    28    30     9 
   24    25    28    37     9 
   26    25    28    29     9 
   26    25    28    30     9 
   26    25    28    37     9 
   27    25    28    29     9 
   27    25    28    30     9 
   27    25    28    37     9 
   25    28    30    31     9 
   29    28    30    31     9 
   37    28    30    31     9 
   25    28    37    38     9 
   25    28    37    39     9 
   25    28    37    40     9 
   29    28    37    38     9 
   29    28    37    39     9 
   29    28    37    40     9 
   30    28    37    38     9 
   30    28    37    39     9 
   30    28    37    40     9 
   28    30    31    32     9 
   28    30    31    33     9 
   28    30    31    34     9 
   30    31    34    35     9 
   30    31    34    36     9 
   30    31    34    47     9 
   32    31    34    35     9 
   32    31    34    36     9 
   32    31    34    47     9 
   33    31    34    35     9 
   33    31    34    36     9 
   33    31    34    47     9 
   31    34    47    48     9 
   31    34    47    49     9 
   31    34    47    50     9 
   35    34    47    48     9 
   35    34    47    49     9 
   35    34    47    50     9 
   36    34    47    48     9 
   36    34    47    49     9 
   36    34    47    50     9 
   28    37    40    41     9 
   38    37    40    41     9 
   39    37    40    41     9 
   37    40    41    42     9 
   37    40    41    43     9 
   37    40    41    44     9 
   40    41    44    45     9 
   40    41    44    46     9 
   40    41    44    94     9 
   42    41    44    45     9 
   42    41    44    46     9 
   42    41    44    94     9 
   43    41    44    45     9 
   43    41    44    46     9 
   43    41    44    94     9 
   41    44    94    95     9 
   41    44    94    96     9 
   41    44    94    97     9 
   45    44    94    95     9 
   45    44    94    96     9 
   45    44    94    97     9 
   46    44    94    95     9 
   46    44    94    96     9 
   46    44    94    97     9 
   34    47    50    51     9 
   34    47    50    52     9 
   34    47    50    53     9 
   48    47    50    51     9 
   48    47    50    52     9 
   48    47    50    53     9 
   49    47    50    51     9 
   49    47    50    52     9 
   49    47    50    53     9 
   47    50    53    54     9 
   47    50    53    55     9 
   47    50    53    56     9 
   51    50    53    54     9 
   51    50    53    55     9 
   51    50    53    56     9 
   52    50    53    54     9 
   52    50    53    55     9 
   52    50    53    56     9 
   50    53    56    57     9 
   50    53    56    58     9 
   50    53    56    59     9 
   54    53    56    57     9 
   54    53    56    58     9 
   54    53    56    59     9 
   55    53    56    57     9 
   55    53    56    58     9 
   55    53    56    59     9 
   53    56    59    60     9 
   53    56    59    61     9 
   53    56    59    62     9 
   57    56    59    60     9 
   57    56    59    61     9 
   57    56    59    62     9 
   58    56    59    60     9 
   58    56    59    61     9 
   58    56    59    62     9 
   56    59    62    63     9 
   56    59    62    64     9 
   56    59    62    65     9 
   60    59    62    63     9 
   60    59    62    64     9 
   60    59    62    65     9 
   61    59    62    63     9 
   61    59    62    64     9 
   61    59    62    65     9 
   59    62    65    66     9 
   59    62    65    67     9 
   63    62    65    66     9 
   63    62    65    67     9 
   64    62    65    66     9 
   64    62    65    67     9 
   62    65    67    68     9 
   62    65    67    69     9 
   66    65    67    68     9 
   66    65    67    69     9 
   65    67    69    70     9 
   65    67    69    71     9 
   65    67    69    72     9 
   68    67    69    70     9 
   68    67    69    71     9 
   68    67    69    72     9 
   67    69    72    73     9 
   67    69    72    74     9 
   67    69    72    75     9 
   70    69    72    73     9 
   70    69    72    74     9 
   70    69    72    75     9 
   71    69    72    73     9 
   71    69    72    74     9 
   71    69    72    75     9 
   69    72    75    76     9 
   69    72    75    77     9 
   69    72    75    78     9 
   73    72    75    76     9 
   73    72    75    77     9 
   73    72    75    78     9 
   74    72    75    76     9 
   74    72    75    77     9 
   74    72    75    78     9 
   72    75    78    79     9 
   72    75    78    80     9 
   72    75    78    81     9 
   76    75    78    79     9 
   76    75    78    80     9 
   76    75    78    81     9 
   77    75    78    79     9 
   77    75    78    80     9 
   77    75    78    81     9 
   75    78    81    82     9 
   75    78    81    83     9 
   75    78    81    84     9 
   79    78    81    82     9 
   79    78    81    83     9 
   79    78    81    84     9 
   80    78    81    82     9 
   80    78    81    83     9 
   80    78    81    84     9 
   78    81    84    85     9 
   78    81    84    86     9 
   78    81    84    87     9 
   82    81    84    85     9 
   82    81    84    86     9 
   82    81    84    87     9 
   83    81    84    85     9 
   83    81    84    86     9 
   83    81    84    87     9 
   81    84    87    88     9 
   81    84    87    89     9 
   81    84    87    90     9 
   85    84    87    88     9 
   85    84    87    89     9 
   85    84    87    90     9 
   86    84    87    88     9 
   86    84    87    89     9 
   86    84    87    90     9 
   84    87    90    91     9 
   84    87    90    92     9 
   84    87    90    93     9 
   88    87    90    91     9 
   88    87    90    92     9 
   88    87    90    93     9 
   89    87    90    91     9 
   89    87    90    92     9 
   89    87    90    93     9 
   44    94    97    98     9 
   44    94    97    99     9 
   44    94    97   100     9 
   95    94    97    98     9 
   95    94    97    99     9 
   95    94    97   100     9 
   96    94    97    98     9 
   96    94    97    99     9 
   96    94    97   100     9 
   94    97   100   101     9 
   94    97   100   102     9 
   94    97   100   103     9 
   98    97   100   101     9 
   98    97   100   102     9 
   98    97   100   103     9 
   99    97   100   101     9 
   99    97   100   102     9 
   99    97   100   103     9 
   97   100   103   104     9 
   97   100   103   105     9 
   97   100   103   106     9 
  101   100   103   104     9 
  101   100   103   105     9 
  101   100   103   106     9 
  102   100   103   104     9 
  102   100   103   105     9 
  102   100   103   106     9 
  100   103   106   107     9 
  100   103   106   108     9 
  100   103   106   109     9 
  104   103   106   107     9 
  104   103   106   108     9 
  104   103   106   109     9 
  105   103   106   107     9 
  105   103   106   108     9 
  105   103   106   109     9 
  103   106   109   110     9 
  103   106   109   111     9 
  103   106   109   112     9 
  107   106   109   110     9 
  107   106   109   111     9 
  107   106   109   112     9 
  108   106   109   110     9 
  108   106   109   111     9 
  108   106   109   112     9 
  106   109   112   113     9 
  106   109   112   114     9 
  106   109   112   115     9 
  110   109   112   113     9 
  110   109   112   114     9 
  110   109   112   115     9 
  111   109   112   113     9 
  111   109   112   114     9 
  111   109   112   115     9 
  109   112   115   116     9 
  109   112   115   117     9 
  109   112   115   118     9 
  113   112   115   116     9 
  113   112   115   117     9 
  113   112   115   118     9 
  114   112   115   116     9 
  114   112   115   117     9 
  114   112   115   118     9 
  112   115   118   119     9 
  112   115   118   120     9 
  112   115   118   121     9 
  116   115   118   119     9 
  116   115   118   120     9 
  116   115   118   121     9 
  117   115   118   119     9 
  117   115   118   120     9 
  117   115   118   121     9 
  115   118   121   122     9 
  115   118   121   123     9 
  115   118   121   124     9 
  119   118   121   122     9 
  119   118   121   123     9 
  119   118   121   124     9 
  120   118   121   122     9 
  120   118   121   123     9 
  120   118   121   124     9 
  118   121   124   125     9 
  118   121   124   126     9 
  118   121   124   127     9 
  122   121   124   125     9 
  122   121   124   126     9 
  122   121   124   127     9 
  123   121   124   125     9 
  123   121   124   126     9 
  123   121   124   127     9 
  121   124   127   128     9 
  121   124   127   129     9 
  121   124   127   130     9 
  125   124   127   128     9 
  125   124   127   129     9 
  125   124   127   130     9 
  126   124   127   128     9 
  126   124   127   129     9 
  126   124   127   130     9 
  124   127   130   131     9 
  124   127   130   132     9 
  124   127   130   133     9 
  128   127   130   131     9 
  128   127   130   132     9 
  128   127   130   133     9 
  129   127   130   131     9 
  129   127   130   132     9 
  129   127   130   133     9 
  127   130   133   134     9 
  127   130   133   135     9 
  127   130   133   136     9 
  131   130   133   134     9 
  131   130   133   135     9 
  131   130   133   136     9 
  132   130   133   134     9 
  132   130   133   135     9 
  132   130   133   136     9 

; Include Position restraint file
#ifdef POSRES
#include "../cg2at-ccd2md/database/fragments/martini_3-1_new_lipidome_charmm36/non_protein/POEC/POEC_posre.itp"
#endif

[ system ]
; Name
Protein

[ molecules ]
; Compound        #mols
Other               1
