[ moleculetype ]
; Name            nrexcl
TOCL                3

[ atoms ]
;   nr       type  resnr residue  atom   cgnr     charge       mass  typeB    chargeB      massB
; residue   1 TOCL rtp TOCL q -2.0
     1       CTL2      1   TOCL     C3      1      -0.08     12.011
     2       HAL2      1   TOCL   HG31      1       0.09      1.008
     3       HAL2      1   TOCL   HG32      1       0.09      1.008
     4         PL      1   TOCL     P3      1        1.5     30.974
     5        O2L      1   TOCL   OP33      1      -0.78    15.9994
     6        O2L      1   TOCL   OP34      1      -0.78    15.9994
     7       OSLP      1   TOCL   OP31      1      -0.57    15.9994
     8       OSLP      1   TOCL   OP32      1      -0.57    15.9994
     9       CTL2      1   TOCL    C31      1      -0.08     12.011
    10       HAL2      1   TOCL   H31J      1       0.09      1.008
    11       HAL2      1   TOCL   H31K      1       0.09      1.008
    12       CTL1      1   TOCL     C2      2       0.14     12.011
    13       HAL1      1   TOCL   HG22      2       0.09      1.008
    14        OHL      1   TOCL   OG12      2      -0.65    15.9994
    15        HOL      1   TOCL   HO12      2       0.42      1.008
    16       CTL2      1   TOCL     C1      3      -0.08     12.011
    17       HAL2      1   TOCL   HG11      3       0.09      1.008
    18       HAL2      1   TOCL   HG12      3       0.09      1.008
    19         PL      1   TOCL     P1      3        1.5     30.974
    20        O2L      1   TOCL   OP13      3      -0.78    15.9994
    21        O2L      1   TOCL   OP14      3      -0.78    15.9994
    22       OSLP      1   TOCL   OP11      3      -0.57    15.9994
    23       OSLP      1   TOCL   OP12      3      -0.57    15.9994
    24       CTL2      1   TOCL    C11      3      -0.08     12.011
    25       HAL2      1   TOCL   H11J      3       0.09      1.008
    26       HAL2      1   TOCL   H11K      3       0.09      1.008
    27       CTL1      1   TOCL    C12      4       0.17     12.011
    28       HAL1      1   TOCL   H12J      4       0.09      1.008
    29        OSL      1   TOCL    O12      4      -0.49    15.9994
    30         CL      1   TOCL    CA1      4        0.9     12.011
    31        OBL      1   TOCL    OA1      4      -0.63    15.9994
    32       CTL2      1   TOCL    CA2      4      -0.22     12.011
    33       HAL2      1   TOCL    H2A      4       0.09      1.008
    34       HAL2      1   TOCL    H2B      4       0.09      1.008
    35       CTL2      1   TOCL    C13      5       0.08     12.011
    36       HAL2      1   TOCL   H13J      5       0.09      1.008
    37       HAL2      1   TOCL   H13K      5       0.09      1.008
    38        OSL      1   TOCL    O13      5      -0.49    15.9994
    39         CL      1   TOCL    CB1      5        0.9     12.011
    40        OBL      1   TOCL    OB1      5      -0.63    15.9994
    41       CTL2      1   TOCL    CB2      5      -0.22     12.011
    42       HAL2      1   TOCL    H2D      5       0.09      1.008
    43       HAL2      1   TOCL    H2E      5       0.09      1.008
    44       CTL1      1   TOCL    C32      6       0.17     12.011
    45       HAL1      1   TOCL   H32J      6       0.09      1.008
    46        OSL      1   TOCL    O32      6      -0.49    15.9994
    47         CL      1   TOCL    CC1      6        0.9     12.011
    48        OBL      1   TOCL    OC1      6      -0.63    15.9994
    49       CTL2      1   TOCL    CC2      6      -0.22     12.011
    50       HAL2      1   TOCL    H2R      6       0.09      1.008
    51       HAL2      1   TOCL    H2S      6       0.09      1.008
    52       CTL2      1   TOCL    C33      7       0.08     12.011
    53       HAL2      1   TOCL   H33J      7       0.09      1.008
    54       HAL2      1   TOCL   H33K      7       0.09      1.008
    55        OSL      1   TOCL    O33      7      -0.49    15.9994
    56         CL      1   TOCL    CD1      7        0.9     12.011
    57        OBL      1   TOCL    OD1      7      -0.63    15.9994
    58       CTL2      1   TOCL    CD2      7      -0.22     12.011
    59       HAL2      1   TOCL    H2X      7       0.09      1.008
    60       HAL2      1   TOCL    H2Y      7       0.09      1.008
    61       CTL2      1   TOCL    CA3      8      -0.18     12.011
    62       HAL2      1   TOCL    H3A      8       0.09      1.008
    63       HAL2      1   TOCL    H3B      8       0.09      1.008
    64       CTL2      1   TOCL    CA4      9      -0.18     12.011
    65       HAL2      1   TOCL    H4A      9       0.09      1.008
    66       HAL2      1   TOCL    H4B      9       0.09      1.008
    67       CTL2      1   TOCL    CA5     10      -0.18     12.011
    68       HAL2      1   TOCL    H5A     10       0.09      1.008
    69       HAL2      1   TOCL    H5B     10       0.09      1.008
    70       CTL2      1   TOCL    CA6     11      -0.18     12.011
    71       HAL2      1   TOCL    H6A     11       0.09      1.008
    72       HAL2      1   TOCL    H6B     11       0.09      1.008
    73       CTL2      1   TOCL    CA7     12      -0.18     12.011
    74       HAL2      1   TOCL    H7A     12       0.09      1.008
    75       HAL2      1   TOCL    H7B     12       0.09      1.008
    76       CTL2      1   TOCL    CA8     13      -0.18     12.011
    77       HAL2      1   TOCL    H8A     13       0.09      1.008
    78       HAL2      1   TOCL    H8B     13       0.09      1.008
    79       CEL1      1   TOCL    CA9     14      -0.15     12.011
    80       HEL1      1   TOCL    H9A     14       0.15      1.008
    81       CEL1      1   TOCL   CA10     15      -0.15     12.011
    82       HEL1      1   TOCL   H10A     15       0.15      1.008
    83       CTL2      1   TOCL   CA11     16      -0.18     12.011
    84       HAL2      1   TOCL   H11A     16       0.09      1.008
    85       HAL2      1   TOCL   H11B     16       0.09      1.008
    86       CTL2      1   TOCL   CA12     17      -0.18     12.011
    87       HAL2      1   TOCL   H12A     17       0.09      1.008
    88       HAL2      1   TOCL   H12B     17       0.09      1.008
    89       CTL2      1   TOCL   CA13     18      -0.18     12.011
    90       HAL2      1   TOCL   H13A     18       0.09      1.008
    91       HAL2      1   TOCL   H13B     18       0.09      1.008
    92       CTL2      1   TOCL   CA14     19      -0.18     12.011
    93       HAL2      1   TOCL   H14A     19       0.09      1.008
    94       HAL2      1   TOCL   H14B     19       0.09      1.008
    95       CTL2      1   TOCL   CA15     20      -0.18     12.011
    96       HAL2      1   TOCL   H15A     20       0.09      1.008
    97       HAL2      1   TOCL   H15B     20       0.09      1.008
    98       CTL2      1   TOCL   CA16     21      -0.18     12.011
    99       HAL2      1   TOCL   H16A     21       0.09      1.008
   100       HAL2      1   TOCL   H16B     21       0.09      1.008
   101       CTL2      1   TOCL   CA17     22      -0.18     12.011
   102       HAL2      1   TOCL   H17A     22       0.09      1.008
   103       HAL2      1   TOCL   H17B     22       0.09      1.008
   104       CTL3      1   TOCL   CA18     23      -0.27     12.011
   105       HAL3      1   TOCL   H18A     23       0.09      1.008
   106       HAL3      1   TOCL   H18B     23       0.09      1.008
   107       HAL3      1   TOCL   H18C     23       0.09      1.008
   108       CTL2      1   TOCL    CB3     24      -0.18     12.011
   109       HAL2      1   TOCL    H3D     24       0.09      1.008
   110       HAL2      1   TOCL    H3E     24       0.09      1.008
   111       CTL2      1   TOCL    CB4     25      -0.18     12.011
   112       HAL2      1   TOCL    H4D     25       0.09      1.008
   113       HAL2      1   TOCL    H4E     25       0.09      1.008
   114       CTL2      1   TOCL    CB5     26      -0.18     12.011
   115       HAL2      1   TOCL    H5D     26       0.09      1.008
   116       HAL2      1   TOCL    H5E     26       0.09      1.008
   117       CTL2      1   TOCL    CB6     27      -0.18     12.011
   118       HAL2      1   TOCL    H6D     27       0.09      1.008
   119       HAL2      1   TOCL    H6E     27       0.09      1.008
   120       CTL2      1   TOCL    CB7     28      -0.18     12.011
   121       HAL2      1   TOCL    H7D     28       0.09      1.008
   122       HAL2      1   TOCL    H7E     28       0.09      1.008
   123       CTL2      1   TOCL    CB8     29      -0.18     12.011
   124       HAL2      1   TOCL    H8D     29       0.09      1.008
   125       HAL2      1   TOCL    H8E     29       0.09      1.008
   126       CEL1      1   TOCL    CB9     30      -0.15     12.011
   127       HEL1      1   TOCL    H9D     30       0.15      1.008
   128       CEL1      1   TOCL   CB10     31      -0.15     12.011
   129       HEL1      1   TOCL   H10D     31       0.15      1.008
   130       CTL2      1   TOCL   CB11     32      -0.18     12.011
   131       HAL2      1   TOCL   H11D     32       0.09      1.008
   132       HAL2      1   TOCL   H11E     32       0.09      1.008
   133       CTL2      1   TOCL   CB12     33      -0.18     12.011
   134       HAL2      1   TOCL   H12D     33       0.09      1.008
   135       HAL2      1   TOCL   H12E     33       0.09      1.008
   136       CTL2      1   TOCL   CB13     34      -0.18     12.011
   137       HAL2      1   TOCL   H13D     34       0.09      1.008
   138       HAL2      1   TOCL   H13E     34       0.09      1.008
   139       CTL2      1   TOCL   CB14     35      -0.18     12.011
   140       HAL2      1   TOCL   H14D     35       0.09      1.008
   141       HAL2      1   TOCL   H14E     35       0.09      1.008
   142       CTL2      1   TOCL   CB15     36      -0.18     12.011
   143       HAL2      1   TOCL   H15D     36       0.09      1.008
   144       HAL2      1   TOCL   H15E     36       0.09      1.008
   145       CTL2      1   TOCL   CB16     37      -0.18     12.011
   146       HAL2      1   TOCL   H16D     37       0.09      1.008
   147       HAL2      1   TOCL   H16E     37       0.09      1.008
   148       CTL2      1   TOCL   CB17     38      -0.18     12.011
   149       HAL2      1   TOCL   H17D     38       0.09      1.008
   150       HAL2      1   TOCL   H17E     38       0.09      1.008
   151       CTL3      1   TOCL   CB18     39      -0.27     12.011
   152       HAL3      1   TOCL   H18D     39       0.09      1.008
   153       HAL3      1   TOCL   H18E     39       0.09      1.008
   154       HAL3      1   TOCL   H18F     39       0.09      1.008
   155       CTL2      1   TOCL    CC3     40      -0.18     12.011
   156       HAL2      1   TOCL    H3R     40       0.09      1.008
   157       HAL2      1   TOCL    H3S     40       0.09      1.008
   158       CTL2      1   TOCL    CC4     41      -0.18     12.011
   159       HAL2      1   TOCL    H4R     41       0.09      1.008
   160       HAL2      1   TOCL    H4S     41       0.09      1.008
   161       CTL2      1   TOCL    CC5     42      -0.18     12.011
   162       HAL2      1   TOCL    H5R     42       0.09      1.008
   163       HAL2      1   TOCL    H5S     42       0.09      1.008
   164       CTL2      1   TOCL    CC6     43      -0.18     12.011
   165       HAL2      1   TOCL    H6R     43       0.09      1.008
   166       HAL2      1   TOCL    H6S     43       0.09      1.008
   167       CTL2      1   TOCL    CC7     44      -0.18     12.011
   168       HAL2      1   TOCL    H7R     44       0.09      1.008
   169       HAL2      1   TOCL    H7S     44       0.09      1.008
   170       CTL2      1   TOCL    CC8     45      -0.18     12.011
   171       HAL2      1   TOCL    H8R     45       0.09      1.008
   172       HAL2      1   TOCL    H8S     45       0.09      1.008
   173       CEL1      1   TOCL    CC9     46      -0.15     12.011
   174       HEL1      1   TOCL    H9R     46       0.15      1.008
   175       CEL1      1   TOCL   CC10     47      -0.15     12.011
   176       HEL1      1   TOCL   H10R     47       0.15      1.008
   177       CTL2      1   TOCL   CC11     48      -0.18     12.011
   178       HAL2      1   TOCL   H11R     48       0.09      1.008
   179       HAL2      1   TOCL   H11S     48       0.09      1.008
   180       CTL2      1   TOCL   CC12     49      -0.18     12.011
   181       HAL2      1   TOCL   H12R     49       0.09      1.008
   182       HAL2      1   TOCL   H12S     49       0.09      1.008
   183       CTL2      1   TOCL   CC13     50      -0.18     12.011
   184       HAL2      1   TOCL   H13R     50       0.09      1.008
   185       HAL2      1   TOCL   H13S     50       0.09      1.008
   186       CTL2      1   TOCL   CC14     51      -0.18     12.011
   187       HAL2      1   TOCL   H14R     51       0.09      1.008
   188       HAL2      1   TOCL   H14S     51       0.09      1.008
   189       CTL2      1   TOCL   CC15     52      -0.18     12.011
   190       HAL2      1   TOCL   H15R     52       0.09      1.008
   191       HAL2      1   TOCL   H15S     52       0.09      1.008
   192       CTL2      1   TOCL   CC16     53      -0.18     12.011
   193       HAL2      1   TOCL   H16R     53       0.09      1.008
   194       HAL2      1   TOCL   H16S     53       0.09      1.008
   195       CTL2      1   TOCL   CC17     54      -0.18     12.011
   196       HAL2      1   TOCL   H17R     54       0.09      1.008
   197       HAL2      1   TOCL   H17S     54       0.09      1.008
   198       CTL3      1   TOCL   CC18     55      -0.27     12.011
   199       HAL3      1   TOCL   H18R     55       0.09      1.008
   200       HAL3      1   TOCL   H18S     55       0.09      1.008
   201       HAL3      1   TOCL   H18T     55       0.09      1.008
   202       CTL2      1   TOCL    CD3     56      -0.18     12.011
   203       HAL2      1   TOCL    H3X     56       0.09      1.008
   204       HAL2      1   TOCL    H3Y     56       0.09      1.008
   205       CTL2      1   TOCL    CD4     57      -0.18     12.011
   206       HAL2      1   TOCL    H4X     57       0.09      1.008
   207       HAL2      1   TOCL    H4Y     57       0.09      1.008
   208       CTL2      1   TOCL    CD5     58      -0.18     12.011
   209       HAL2      1   TOCL    H5X     58       0.09      1.008
   210       HAL2      1   TOCL    H5Y     58       0.09      1.008
   211       CTL2      1   TOCL    CD6     59      -0.18     12.011
   212       HAL2      1   TOCL    H6X     59       0.09      1.008
   213       HAL2      1   TOCL    H6Y     59       0.09      1.008
   214       CTL2      1   TOCL    CD7     60      -0.18     12.011
   215       HAL2      1   TOCL    H7X     60       0.09      1.008
   216       HAL2      1   TOCL    H7Y     60       0.09      1.008
   217       CTL2      1   TOCL    CD8     61      -0.18     12.011
   218       HAL2      1   TOCL    H8X     61       0.09      1.008
   219       HAL2      1   TOCL    H8Y     61       0.09      1.008
   220       CEL1      1   TOCL    CD9     62      -0.15     12.011
   221       HEL1      1   TOCL    H9X     62       0.15      1.008
   222       CEL1      1   TOCL   CD10     63      -0.15     12.011
   223       HEL1      1   TOCL   H10X     63       0.15      1.008
   224       CTL2      1   TOCL   CD11     64      -0.18     12.011
   225       HAL2      1   TOCL   H11X     64       0.09      1.008
   226       HAL2      1   TOCL   H11Y     64       0.09      1.008
   227       CTL2      1   TOCL   CD12     65      -0.18     12.011
   228       HAL2      1   TOCL   H12X     65       0.09      1.008
   229       HAL2      1   TOCL   H12Y     65       0.09      1.008
   230       CTL2      1   TOCL   CD13     66      -0.18     12.011
   231       HAL2      1   TOCL   H13X     66       0.09      1.008
   232       HAL2      1   TOCL   H13Y     66       0.09      1.008
   233       CTL2      1   TOCL   CD14     67      -0.18     12.011
   234       HAL2      1   TOCL   H14X     67       0.09      1.008
   235       HAL2      1   TOCL   H14Y     67       0.09      1.008
   236       CTL2      1   TOCL   CD15     68      -0.18     12.011
   237       HAL2      1   TOCL   H15X     68       0.09      1.008
   238       HAL2      1   TOCL   H15Y     68       0.09      1.008
   239       CTL2      1   TOCL   CD16     69      -0.18     12.011
   240       HAL2      1   TOCL   H16X     69       0.09      1.008
   241       HAL2      1   TOCL   H16Y     69       0.09      1.008
   242       CTL2      1   TOCL   CD17     70      -0.18     12.011
   243       HAL2      1   TOCL   H17X     70       0.09      1.008
   244       HAL2      1   TOCL   H17Y     70       0.09      1.008
   245       CTL3      1   TOCL   CD18     71      -0.27     12.011
   246       HAL3      1   TOCL   H18X     71       0.09      1.008
   247       HAL3      1   TOCL   H18Y     71       0.09      1.008
   248       HAL3      1   TOCL   H18Z     71       0.09      1.008   ; qtot -2

[ bonds ]
;  ai    aj funct            c0            c1            c2            c3
    1     2     1 
    1     3     1 
    1     7     1 
    1    12     1 
    4     5     1 
    4     6     1 
    4     7     1 
    4     8     1 
    8     9     1 
    9    10     1 
    9    11     1 
    9    44     1 
   12    13     1 
   12    14     1 
   12    16     1 
   14    15     1 
   16    17     1 
   16    18     1 
   16    22     1 
   19    20     1 
   19    21     1 
   19    22     1 
   19    23     1 
   23    24     1 
   24    25     1 
   24    26     1 
   24    27     1 
   27    28     1 
   27    29     1 
   27    35     1 
   29    30     1 
   30    31     1 
   30    32     1 
   32    33     1 
   32    34     1 
   32    61     1 
   35    36     1 
   35    37     1 
   35    38     1 
   38    39     1 
   39    40     1 
   39    41     1 
   41    42     1 
   41    43     1 
   41   108     1 
   44    45     1 
   44    46     1 
   44    52     1 
   46    47     1 
   47    48     1 
   47    49     1 
   49    50     1 
   49    51     1 
   49   155     1 
   52    53     1 
   52    54     1 
   52    55     1 
   55    56     1 
   56    57     1 
   56    58     1 
   58    59     1 
   58    60     1 
   58   202     1 
   61    62     1 
   61    63     1 
   61    64     1 
   64    65     1 
   64    66     1 
   64    67     1 
   67    68     1 
   67    69     1 
   67    70     1 
   70    71     1 
   70    72     1 
   70    73     1 
   73    74     1 
   73    75     1 
   73    76     1 
   76    77     1 
   76    78     1 
   76    79     1 
   79    80     1 
   79    81     1 
   81    82     1 
   81    83     1 
   83    84     1 
   83    85     1 
   83    86     1 
   86    87     1 
   86    88     1 
   86    89     1 
   89    90     1 
   89    91     1 
   89    92     1 
   92    93     1 
   92    94     1 
   92    95     1 
   95    96     1 
   95    97     1 
   95    98     1 
   98    99     1 
   98   100     1 
   98   101     1 
  101   102     1 
  101   103     1 
  101   104     1 
  104   105     1 
  104   106     1 
  104   107     1 
  108   109     1 
  108   110     1 
  108   111     1 
  111   112     1 
  111   113     1 
  111   114     1 
  114   115     1 
  114   116     1 
  114   117     1 
  117   118     1 
  117   119     1 
  117   120     1 
  120   121     1 
  120   122     1 
  120   123     1 
  123   124     1 
  123   125     1 
  123   126     1 
  126   127     1 
  126   128     1 
  128   129     1 
  128   130     1 
  130   131     1 
  130   132     1 
  130   133     1 
  133   134     1 
  133   135     1 
  133   136     1 
  136   137     1 
  136   138     1 
  136   139     1 
  139   140     1 
  139   141     1 
  139   142     1 
  142   143     1 
  142   144     1 
  142   145     1 
  145   146     1 
  145   147     1 
  145   148     1 
  148   149     1 
  148   150     1 
  148   151     1 
  151   152     1 
  151   153     1 
  151   154     1 
  155   156     1 
  155   157     1 
  155   158     1 
  158   159     1 
  158   160     1 
  158   161     1 
  161   162     1 
  161   163     1 
  161   164     1 
  164   165     1 
  164   166     1 
  164   167     1 
  167   168     1 
  167   169     1 
  167   170     1 
  170   171     1 
  170   172     1 
  170   173     1 
  173   174     1 
  173   175     1 
  175   176     1 
  175   177     1 
  177   178     1 
  177   179     1 
  177   180     1 
  180   181     1 
  180   182     1 
  180   183     1 
  183   184     1 
  183   185     1 
  183   186     1 
  186   187     1 
  186   188     1 
  186   189     1 
  189   190     1 
  189   191     1 
  189   192     1 
  192   193     1 
  192   194     1 
  192   195     1 
  195   196     1 
  195   197     1 
  195   198     1 
  198   199     1 
  198   200     1 
  198   201     1 
  202   203     1 
  202   204     1 
  202   205     1 
  205   206     1 
  205   207     1 
  205   208     1 
  208   209     1 
  208   210     1 
  208   211     1 
  211   212     1 
  211   213     1 
  211   214     1 
  214   215     1 
  214   216     1 
  214   217     1 
  217   218     1 
  217   219     1 
  217   220     1 
  220   221     1 
  220   222     1 
  222   223     1 
  222   224     1 
  224   225     1 
  224   226     1 
  224   227     1 
  227   228     1 
  227   229     1 
  227   230     1 
  230   231     1 
  230   232     1 
  230   233     1 
  233   234     1 
  233   235     1 
  233   236     1 
  236   237     1 
  236   238     1 
  236   239     1 
  239   240     1 
  239   241     1 
  239   242     1 
  242   243     1 
  242   244     1 
  242   245     1 
  245   246     1 
  245   247     1 
  245   248     1 

[ pairs ]
;  ai    aj funct            c0            c1            c2            c3
    1     5     1 
    1     6     1 
    1     8     1 
    1    15     1 
    1    17     1 
    1    18     1 
    1    22     1 
    2     4     1 
    2    13     1 
    2    14     1 
    2    16     1 
    3     4     1 
    3    13     1 
    3    14     1 
    3    16     1 
    4    10     1 
    4    11     1 
    4    12     1 
    4    44     1 
    5     9     1 
    6     9     1 
    7     9     1 
    7    13     1 
    7    14     1 
    7    16     1 
    8    45     1 
    8    46     1 
    8    52     1 
    9    47     1 
    9    53     1 
    9    54     1 
    9    55     1 
   10    45     1 
   10    46     1 
   10    52     1 
   11    45     1 
   11    46     1 
   11    52     1 
   12    19     1 
   13    15     1 
   13    17     1 
   13    18     1 
   13    22     1 
   14    17     1 
   14    18     1 
   14    22     1 
   15    16     1 
   16    20     1 
   16    21     1 
   16    23     1 
   17    19     1 
   18    19     1 
   19    25     1 
   19    26     1 
   19    27     1 
   20    24     1 
   21    24     1 
   22    24     1 
   23    28     1 
   23    29     1 
   23    35     1 
   24    30     1 
   24    36     1 
   24    37     1 
   24    38     1 
   25    28     1 
   25    29     1 
   25    35     1 
   26    28     1 
   26    29     1 
   26    35     1 
   27    31     1 
   27    32     1 
   27    39     1 
   28    30     1 
   28    36     1 
   28    37     1 
   28    38     1 
   29    33     1 
   29    34     1 
   29    36     1 
   29    37     1 
   29    38     1 
   29    61     1 
   30    35     1 
   30    62     1 
   30    63     1 
   30    64     1 
   31    33     1 
   31    34     1 
   31    61     1 
   32    65     1 
   32    66     1 
   32    67     1 
   33    62     1 
   33    63     1 
   33    64     1 
   34    62     1 
   34    63     1 
   34    64     1 
   35    40     1 
   35    41     1 
   36    39     1 
   37    39     1 
   38    42     1 
   38    43     1 
   38   108     1 
   39   109     1 
   39   110     1 
   39   111     1 
   40    42     1 
   40    43     1 
   40   108     1 
   41   112     1 
   41   113     1 
   41   114     1 
   42   109     1 
   42   110     1 
   42   111     1 
   43   109     1 
   43   110     1 
   43   111     1 
   44    48     1 
   44    49     1 
   44    56     1 
   45    47     1 
   45    53     1 
   45    54     1 
   45    55     1 
   46    50     1 
   46    51     1 
   46    53     1 
   46    54     1 
   46    55     1 
   46   155     1 
   47    52     1 
   47   156     1 
   47   157     1 
   47   158     1 
   48    50     1 
   48    51     1 
   48   155     1 
   49   159     1 
   49   160     1 
   49   161     1 
   50   156     1 
   50   157     1 
   50   158     1 
   51   156     1 
   51   157     1 
   51   158     1 
   52    57     1 
   52    58     1 
   53    56     1 
   54    56     1 
   55    59     1 
   55    60     1 
   55   202     1 
   56   203     1 
   56   204     1 
   56   205     1 
   57    59     1 
   57    60     1 
   57   202     1 
   58   206     1 
   58   207     1 
   58   208     1 
   59   203     1 
   59   204     1 
   59   205     1 
   60   203     1 
   60   204     1 
   60   205     1 
   61    68     1 
   61    69     1 
   61    70     1 
   62    65     1 
   62    66     1 
   62    67     1 
   63    65     1 
   63    66     1 
   63    67     1 
   64    71     1 
   64    72     1 
   64    73     1 
   65    68     1 
   65    69     1 
   65    70     1 
   66    68     1 
   66    69     1 
   66    70     1 
   67    74     1 
   67    75     1 
   67    76     1 
   68    71     1 
   68    72     1 
   68    73     1 
   69    71     1 
   69    72     1 
   69    73     1 
   70    77     1 
   70    78     1 
   70    79     1 
   71    74     1 
   71    75     1 
   71    76     1 
   72    74     1 
   72    75     1 
   72    76     1 
   73    80     1 
   73    81     1 
   74    77     1 
   74    78     1 
   74    79     1 
   75    77     1 
   75    78     1 
   75    79     1 
   76    82     1 
   76    83     1 
   77    80     1 
   77    81     1 
   78    80     1 
   78    81     1 
   79    84     1 
   79    85     1 
   79    86     1 
   80    82     1 
   80    83     1 
   81    87     1 
   81    88     1 
   81    89     1 
   82    84     1 
   82    85     1 
   82    86     1 
   83    90     1 
   83    91     1 
   83    92     1 
   84    87     1 
   84    88     1 
   84    89     1 
   85    87     1 
   85    88     1 
   85    89     1 
   86    93     1 
   86    94     1 
   86    95     1 
   87    90     1 
   87    91     1 
   87    92     1 
   88    90     1 
   88    91     1 
   88    92     1 
   89    96     1 
   89    97     1 
   89    98     1 
   90    93     1 
   90    94     1 
   90    95     1 
   91    93     1 
   91    94     1 
   91    95     1 
   92    99     1 
   92   100     1 
   92   101     1 
   93    96     1 
   93    97     1 
   93    98     1 
   94    96     1 
   94    97     1 
   94    98     1 
   95   102     1 
   95   103     1 
   95   104     1 
   96    99     1 
   96   100     1 
   96   101     1 
   97    99     1 
   97   100     1 
   97   101     1 
   98   105     1 
   98   106     1 
   98   107     1 
   99   102     1 
   99   103     1 
   99   104     1 
  100   102     1 
  100   103     1 
  100   104     1 
  102   105     1 
  102   106     1 
  102   107     1 
  103   105     1 
  103   106     1 
  103   107     1 
  108   115     1 
  108   116     1 
  108   117     1 
  109   112     1 
  109   113     1 
  109   114     1 
  110   112     1 
  110   113     1 
  110   114     1 
  111   118     1 
  111   119     1 
  111   120     1 
  112   115     1 
  112   116     1 
  112   117     1 
  113   115     1 
  113   116     1 
  113   117     1 
  114   121     1 
  114   122     1 
  114   123     1 
  115   118     1 
  115   119     1 
  115   120     1 
  116   118     1 
  116   119     1 
  116   120     1 
  117   124     1 
  117   125     1 
  117   126     1 
  118   121     1 
  118   122     1 
  118   123     1 
  119   121     1 
  119   122     1 
  119   123     1 
  120   127     1 
  120   128     1 
  121   124     1 
  121   125     1 
  121   126     1 
  122   124     1 
  122   125     1 
  122   126     1 
  123   129     1 
  123   130     1 
  124   127     1 
  124   128     1 
  125   127     1 
  125   128     1 
  126   131     1 
  126   132     1 
  126   133     1 
  127   129     1 
  127   130     1 
  128   134     1 
  128   135     1 
  128   136     1 
  129   131     1 
  129   132     1 
  129   133     1 
  130   137     1 
  130   138     1 
  130   139     1 
  131   134     1 
  131   135     1 
  131   136     1 
  132   134     1 
  132   135     1 
  132   136     1 
  133   140     1 
  133   141     1 
  133   142     1 
  134   137     1 
  134   138     1 
  134   139     1 
  135   137     1 
  135   138     1 
  135   139     1 
  136   143     1 
  136   144     1 
  136   145     1 
  137   140     1 
  137   141     1 
  137   142     1 
  138   140     1 
  138   141     1 
  138   142     1 
  139   146     1 
  139   147     1 
  139   148     1 
  140   143     1 
  140   144     1 
  140   145     1 
  141   143     1 
  141   144     1 
  141   145     1 
  142   149     1 
  142   150     1 
  142   151     1 
  143   146     1 
  143   147     1 
  143   148     1 
  144   146     1 
  144   147     1 
  144   148     1 
  145   152     1 
  145   153     1 
  145   154     1 
  146   149     1 
  146   150     1 
  146   151     1 
  147   149     1 
  147   150     1 
  147   151     1 
  149   152     1 
  149   153     1 
  149   154     1 
  150   152     1 
  150   153     1 
  150   154     1 
  155   162     1 
  155   163     1 
  155   164     1 
  156   159     1 
  156   160     1 
  156   161     1 
  157   159     1 
  157   160     1 
  157   161     1 
  158   165     1 
  158   166     1 
  158   167     1 
  159   162     1 
  159   163     1 
  159   164     1 
  160   162     1 
  160   163     1 
  160   164     1 
  161   168     1 
  161   169     1 
  161   170     1 
  162   165     1 
  162   166     1 
  162   167     1 
  163   165     1 
  163   166     1 
  163   167     1 
  164   171     1 
  164   172     1 
  164   173     1 
  165   168     1 
  165   169     1 
  165   170     1 
  166   168     1 
  166   169     1 
  166   170     1 
  167   174     1 
  167   175     1 
  168   171     1 
  168   172     1 
  168   173     1 
  169   171     1 
  169   172     1 
  169   173     1 
  170   176     1 
  170   177     1 
  171   174     1 
  171   175     1 
  172   174     1 
  172   175     1 
  173   178     1 
  173   179     1 
  173   180     1 
  174   176     1 
  174   177     1 
  175   181     1 
  175   182     1 
  175   183     1 
  176   178     1 
  176   179     1 
  176   180     1 
  177   184     1 
  177   185     1 
  177   186     1 
  178   181     1 
  178   182     1 
  178   183     1 
  179   181     1 
  179   182     1 
  179   183     1 
  180   187     1 
  180   188     1 
  180   189     1 
  181   184     1 
  181   185     1 
  181   186     1 
  182   184     1 
  182   185     1 
  182   186     1 
  183   190     1 
  183   191     1 
  183   192     1 
  184   187     1 
  184   188     1 
  184   189     1 
  185   187     1 
  185   188     1 
  185   189     1 
  186   193     1 
  186   194     1 
  186   195     1 
  187   190     1 
  187   191     1 
  187   192     1 
  188   190     1 
  188   191     1 
  188   192     1 
  189   196     1 
  189   197     1 
  189   198     1 
  190   193     1 
  190   194     1 
  190   195     1 
  191   193     1 
  191   194     1 
  191   195     1 
  192   199     1 
  192   200     1 
  192   201     1 
  193   196     1 
  193   197     1 
  193   198     1 
  194   196     1 
  194   197     1 
  194   198     1 
  196   199     1 
  196   200     1 
  196   201     1 
  197   199     1 
  197   200     1 
  197   201     1 
  202   209     1 
  202   210     1 
  202   211     1 
  203   206     1 
  203   207     1 
  203   208     1 
  204   206     1 
  204   207     1 
  204   208     1 
  205   212     1 
  205   213     1 
  205   214     1 
  206   209     1 
  206   210     1 
  206   211     1 
  207   209     1 
  207   210     1 
  207   211     1 
  208   215     1 
  208   216     1 
  208   217     1 
  209   212     1 
  209   213     1 
  209   214     1 
  210   212     1 
  210   213     1 
  210   214     1 
  211   218     1 
  211   219     1 
  211   220     1 
  212   215     1 
  212   216     1 
  212   217     1 
  213   215     1 
  213   216     1 
  213   217     1 
  214   221     1 
  214   222     1 
  215   218     1 
  215   219     1 
  215   220     1 
  216   218     1 
  216   219     1 
  216   220     1 
  217   223     1 
  217   224     1 
  218   221     1 
  218   222     1 
  219   221     1 
  219   222     1 
  220   225     1 
  220   226     1 
  220   227     1 
  221   223     1 
  221   224     1 
  222   228     1 
  222   229     1 
  222   230     1 
  223   225     1 
  223   226     1 
  223   227     1 
  224   231     1 
  224   232     1 
  224   233     1 
  225   228     1 
  225   229     1 
  225   230     1 
  226   228     1 
  226   229     1 
  226   230     1 
  227   234     1 
  227   235     1 
  227   236     1 
  228   231     1 
  228   232     1 
  228   233     1 
  229   231     1 
  229   232     1 
  229   233     1 
  230   237     1 
  230   238     1 
  230   239     1 
  231   234     1 
  231   235     1 
  231   236     1 
  232   234     1 
  232   235     1 
  232   236     1 
  233   240     1 
  233   241     1 
  233   242     1 
  234   237     1 
  234   238     1 
  234   239     1 
  235   237     1 
  235   238     1 
  235   239     1 
  236   243     1 
  236   244     1 
  236   245     1 
  237   240     1 
  237   241     1 
  237   242     1 
  238   240     1 
  238   241     1 
  238   242     1 
  239   246     1 
  239   247     1 
  239   248     1 
  240   243     1 
  240   244     1 
  240   245     1 
  241   243     1 
  241   244     1 
  241   245     1 
  243   246     1 
  243   247     1 
  243   248     1 
  244   246     1 
  244   247     1 
  244   248     1 

[ angles ]
;  ai    aj    ak funct            c0            c1            c2            c3
    2     1     3     5 
    2     1     7     5 
    2     1    12     5 
    3     1     7     5 
    3     1    12     5 
    7     1    12     5 
    5     4     6     5 
    5     4     7     5 
    5     4     8     5 
    6     4     7     5 
    6     4     8     5 
    7     4     8     5 
    1     7     4     5 
    4     8     9     5 
    8     9    10     5 
    8     9    11     5 
    8     9    44     5 
   10     9    11     5 
   10     9    44     5 
   11     9    44     5 
    1    12    13     5 
    1    12    14     5 
    1    12    16     5 
   13    12    14     5 
   13    12    16     5 
   14    12    16     5 
   12    14    15     5 
   12    16    17     5 
   12    16    18     5 
   12    16    22     5 
   17    16    18     5 
   17    16    22     5 
   18    16    22     5 
   20    19    21     5 
   20    19    22     5 
   20    19    23     5 
   21    19    22     5 
   21    19    23     5 
   22    19    23     5 
   16    22    19     5 
   19    23    24     5 
   23    24    25     5 
   23    24    26     5 
   23    24    27     5 
   25    24    26     5 
   25    24    27     5 
   26    24    27     5 
   24    27    28     5 
   24    27    29     5 
   24    27    35     5 
   28    27    29     5 
   28    27    35     5 
   29    27    35     5 
   27    29    30     5 
   29    30    31     5 
   29    30    32     5 
   31    30    32     5 
   30    32    33     5 
   30    32    34     5 
   30    32    61     5 
   33    32    34     5 
   33    32    61     5 
   34    32    61     5 
   27    35    36     5 
   27    35    37     5 
   27    35    38     5 
   36    35    37     5 
   36    35    38     5 
   37    35    38     5 
   35    38    39     5 
   38    39    40     5 
   38    39    41     5 
   40    39    41     5 
   39    41    42     5 
   39    41    43     5 
   39    41   108     5 
   42    41    43     5 
   42    41   108     5 
   43    41   108     5 
    9    44    45     5 
    9    44    46     5 
    9    44    52     5 
   45    44    46     5 
   45    44    52     5 
   46    44    52     5 
   44    46    47     5 
   46    47    48     5 
   46    47    49     5 
   48    47    49     5 
   47    49    50     5 
   47    49    51     5 
   47    49   155     5 
   50    49    51     5 
   50    49   155     5 
   51    49   155     5 
   44    52    53     5 
   44    52    54     5 
   44    52    55     5 
   53    52    54     5 
   53    52    55     5 
   54    52    55     5 
   52    55    56     5 
   55    56    57     5 
   55    56    58     5 
   57    56    58     5 
   56    58    59     5 
   56    58    60     5 
   56    58   202     5 
   59    58    60     5 
   59    58   202     5 
   60    58   202     5 
   32    61    62     5 
   32    61    63     5 
   32    61    64     5 
   62    61    63     5 
   62    61    64     5 
   63    61    64     5 
   61    64    65     5 
   61    64    66     5 
   61    64    67     5 
   65    64    66     5 
   65    64    67     5 
   66    64    67     5 
   64    67    68     5 
   64    67    69     5 
   64    67    70     5 
   68    67    69     5 
   68    67    70     5 
   69    67    70     5 
   67    70    71     5 
   67    70    72     5 
   67    70    73     5 
   71    70    72     5 
   71    70    73     5 
   72    70    73     5 
   70    73    74     5 
   70    73    75     5 
   70    73    76     5 
   74    73    75     5 
   74    73    76     5 
   75    73    76     5 
   73    76    77     5 
   73    76    78     5 
   73    76    79     5 
   77    76    78     5 
   77    76    79     5 
   78    76    79     5 
   76    79    80     5 
   76    79    81     5 
   80    79    81     5 
   79    81    82     5 
   79    81    83     5 
   82    81    83     5 
   81    83    84     5 
   81    83    85     5 
   81    83    86     5 
   84    83    85     5 
   84    83    86     5 
   85    83    86     5 
   83    86    87     5 
   83    86    88     5 
   83    86    89     5 
   87    86    88     5 
   87    86    89     5 
   88    86    89     5 
   86    89    90     5 
   86    89    91     5 
   86    89    92     5 
   90    89    91     5 
   90    89    92     5 
   91    89    92     5 
   89    92    93     5 
   89    92    94     5 
   89    92    95     5 
   93    92    94     5 
   93    92    95     5 
   94    92    95     5 
   92    95    96     5 
   92    95    97     5 
   92    95    98     5 
   96    95    97     5 
   96    95    98     5 
   97    95    98     5 
   95    98    99     5 
   95    98   100     5 
   95    98   101     5 
   99    98   100     5 
   99    98   101     5 
  100    98   101     5 
   98   101   102     5 
   98   101   103     5 
   98   101   104     5 
  102   101   103     5 
  102   101   104     5 
  103   101   104     5 
  101   104   105     5 
  101   104   106     5 
  101   104   107     5 
  105   104   106     5 
  105   104   107     5 
  106   104   107     5 
   41   108   109     5 
   41   108   110     5 
   41   108   111     5 
  109   108   110     5 
  109   108   111     5 
  110   108   111     5 
  108   111   112     5 
  108   111   113     5 
  108   111   114     5 
  112   111   113     5 
  112   111   114     5 
  113   111   114     5 
  111   114   115     5 
  111   114   116     5 
  111   114   117     5 
  115   114   116     5 
  115   114   117     5 
  116   114   117     5 
  114   117   118     5 
  114   117   119     5 
  114   117   120     5 
  118   117   119     5 
  118   117   120     5 
  119   117   120     5 
  117   120   121     5 
  117   120   122     5 
  117   120   123     5 
  121   120   122     5 
  121   120   123     5 
  122   120   123     5 
  120   123   124     5 
  120   123   125     5 
  120   123   126     5 
  124   123   125     5 
  124   123   126     5 
  125   123   126     5 
  123   126   127     5 
  123   126   128     5 
  127   126   128     5 
  126   128   129     5 
  126   128   130     5 
  129   128   130     5 
  128   130   131     5 
  128   130   132     5 
  128   130   133     5 
  131   130   132     5 
  131   130   133     5 
  132   130   133     5 
  130   133   134     5 
  130   133   135     5 
  130   133   136     5 
  134   133   135     5 
  134   133   136     5 
  135   133   136     5 
  133   136   137     5 
  133   136   138     5 
  133   136   139     5 
  137   136   138     5 
  137   136   139     5 
  138   136   139     5 
  136   139   140     5 
  136   139   141     5 
  136   139   142     5 
  140   139   141     5 
  140   139   142     5 
  141   139   142     5 
  139   142   143     5 
  139   142   144     5 
  139   142   145     5 
  143   142   144     5 
  143   142   145     5 
  144   142   145     5 
  142   145   146     5 
  142   145   147     5 
  142   145   148     5 
  146   145   147     5 
  146   145   148     5 
  147   145   148     5 
  145   148   149     5 
  145   148   150     5 
  145   148   151     5 
  149   148   150     5 
  149   148   151     5 
  150   148   151     5 
  148   151   152     5 
  148   151   153     5 
  148   151   154     5 
  152   151   153     5 
  152   151   154     5 
  153   151   154     5 
   49   155   156     5 
   49   155   157     5 
   49   155   158     5 
  156   155   157     5 
  156   155   158     5 
  157   155   158     5 
  155   158   159     5 
  155   158   160     5 
  155   158   161     5 
  159   158   160     5 
  159   158   161     5 
  160   158   161     5 
  158   161   162     5 
  158   161   163     5 
  158   161   164     5 
  162   161   163     5 
  162   161   164     5 
  163   161   164     5 
  161   164   165     5 
  161   164   166     5 
  161   164   167     5 
  165   164   166     5 
  165   164   167     5 
  166   164   167     5 
  164   167   168     5 
  164   167   169     5 
  164   167   170     5 
  168   167   169     5 
  168   167   170     5 
  169   167   170     5 
  167   170   171     5 
  167   170   172     5 
  167   170   173     5 
  171   170   172     5 
  171   170   173     5 
  172   170   173     5 
  170   173   174     5 
  170   173   175     5 
  174   173   175     5 
  173   175   176     5 
  173   175   177     5 
  176   175   177     5 
  175   177   178     5 
  175   177   179     5 
  175   177   180     5 
  178   177   179     5 
  178   177   180     5 
  179   177   180     5 
  177   180   181     5 
  177   180   182     5 
  177   180   183     5 
  181   180   182     5 
  181   180   183     5 
  182   180   183     5 
  180   183   184     5 
  180   183   185     5 
  180   183   186     5 
  184   183   185     5 
  184   183   186     5 
  185   183   186     5 
  183   186   187     5 
  183   186   188     5 
  183   186   189     5 
  187   186   188     5 
  187   186   189     5 
  188   186   189     5 
  186   189   190     5 
  186   189   191     5 
  186   189   192     5 
  190   189   191     5 
  190   189   192     5 
  191   189   192     5 
  189   192   193     5 
  189   192   194     5 
  189   192   195     5 
  193   192   194     5 
  193   192   195     5 
  194   192   195     5 
  192   195   196     5 
  192   195   197     5 
  192   195   198     5 
  196   195   197     5 
  196   195   198     5 
  197   195   198     5 
  195   198   199     5 
  195   198   200     5 
  195   198   201     5 
  199   198   200     5 
  199   198   201     5 
  200   198   201     5 
   58   202   203     5 
   58   202   204     5 
   58   202   205     5 
  203   202   204     5 
  203   202   205     5 
  204   202   205     5 
  202   205   206     5 
  202   205   207     5 
  202   205   208     5 
  206   205   207     5 
  206   205   208     5 
  207   205   208     5 
  205   208   209     5 
  205   208   210     5 
  205   208   211     5 
  209   208   210     5 
  209   208   211     5 
  210   208   211     5 
  208   211   212     5 
  208   211   213     5 
  208   211   214     5 
  212   211   213     5 
  212   211   214     5 
  213   211   214     5 
  211   214   215     5 
  211   214   216     5 
  211   214   217     5 
  215   214   216     5 
  215   214   217     5 
  216   214   217     5 
  214   217   218     5 
  214   217   219     5 
  214   217   220     5 
  218   217   219     5 
  218   217   220     5 
  219   217   220     5 
  217   220   221     5 
  217   220   222     5 
  221   220   222     5 
  220   222   223     5 
  220   222   224     5 
  223   222   224     5 
  222   224   225     5 
  222   224   226     5 
  222   224   227     5 
  225   224   226     5 
  225   224   227     5 
  226   224   227     5 
  224   227   228     5 
  224   227   229     5 
  224   227   230     5 
  228   227   229     5 
  228   227   230     5 
  229   227   230     5 
  227   230   231     5 
  227   230   232     5 
  227   230   233     5 
  231   230   232     5 
  231   230   233     5 
  232   230   233     5 
  230   233   234     5 
  230   233   235     5 
  230   233   236     5 
  234   233   235     5 
  234   233   236     5 
  235   233   236     5 
  233   236   237     5 
  233   236   238     5 
  233   236   239     5 
  237   236   238     5 
  237   236   239     5 
  238   236   239     5 
  236   239   240     5 
  236   239   241     5 
  236   239   242     5 
  240   239   241     5 
  240   239   242     5 
  241   239   242     5 
  239   242   243     5 
  239   242   244     5 
  239   242   245     5 
  243   242   244     5 
  243   242   245     5 
  244   242   245     5 
  242   245   246     5 
  242   245   247     5 
  242   245   248     5 
  246   245   247     5 
  246   245   248     5 
  247   245   248     5 

[ dihedrals ]
;  ai    aj    ak    al funct            c0            c1            c2            c3            c4            c5
    2     1     7     4     9 
    3     1     7     4     9 
   12     1     7     4     9 
    2     1    12    13     9 
    2     1    12    14     9 
    2     1    12    16     9 
    3     1    12    13     9 
    3     1    12    14     9 
    3     1    12    16     9 
    7     1    12    13     9 
    7     1    12    14     9 
    7     1    12    16     9 
    5     4     7     1     9 
    6     4     7     1     9 
    8     4     7     1     9 
    5     4     8     9     9 
    6     4     8     9     9 
    7     4     8     9     9 
    4     8     9    10     9 
    4     8     9    11     9 
    4     8     9    44     9 
    8     9    44    45     9 
    8     9    44    46     9 
    8     9    44    52     9 
   10     9    44    45     9 
   10     9    44    46     9 
   10     9    44    52     9 
   11     9    44    45     9 
   11     9    44    46     9 
   11     9    44    52     9 
    1    12    14    15     9 
   13    12    14    15     9 
   16    12    14    15     9 
    1    12    16    17     9 
    1    12    16    18     9 
    1    12    16    22     9 
   13    12    16    17     9 
   13    12    16    18     9 
   13    12    16    22     9 
   14    12    16    17     9 
   14    12    16    18     9 
   14    12    16    22     9 
   12    16    22    19     9 
   17    16    22    19     9 
   18    16    22    19     9 
   20    19    22    16     9 
   21    19    22    16     9 
   23    19    22    16     9 
   20    19    23    24     9 
   21    19    23    24     9 
   22    19    23    24     9 
   19    23    24    25     9 
   19    23    24    26     9 
   19    23    24    27     9 
   23    24    27    28     9 
   23    24    27    29     9 
   23    24    27    35     9 
   25    24    27    28     9 
   25    24    27    29     9 
   25    24    27    35     9 
   26    24    27    28     9 
   26    24    27    29     9 
   26    24    27    35     9 
   24    27    29    30     9 
   28    27    29    30     9 
   35    27    29    30     9 
   24    27    35    36     9 
   24    27    35    37     9 
   24    27    35    38     9 
   28    27    35    36     9 
   28    27    35    37     9 
   28    27    35    38     9 
   29    27    35    36     9 
   29    27    35    37     9 
   29    27    35    38     9 
   27    29    30    31     9 
   27    29    30    32     9 
   29    30    32    33     9 
   29    30    32    34     9 
   29    30    32    61     9 
   31    30    32    33     9 
   31    30    32    34     9 
   31    30    32    61     9 
   30    32    61    62     9 
   30    32    61    63     9 
   30    32    61    64     9 
   33    32    61    62     9 
   33    32    61    63     9 
   33    32    61    64     9 
   34    32    61    62     9 
   34    32    61    63     9 
   34    32    61    64     9 
   27    35    38    39     9 
   36    35    38    39     9 
   37    35    38    39     9 
   35    38    39    40     9 
   35    38    39    41     9 
   38    39    41    42     9 
   38    39    41    43     9 
   38    39    41   108     9 
   40    39    41    42     9 
   40    39    41    43     9 
   40    39    41   108     9 
   39    41   108   109     9 
   39    41   108   110     9 
   39    41   108   111     9 
   42    41   108   109     9 
   42    41   108   110     9 
   42    41   108   111     9 
   43    41   108   109     9 
   43    41   108   110     9 
   43    41   108   111     9 
    9    44    46    47     9 
   45    44    46    47     9 
   52    44    46    47     9 
    9    44    52    53     9 
    9    44    52    54     9 
    9    44    52    55     9 
   45    44    52    53     9 
   45    44    52    54     9 
   45    44    52    55     9 
   46    44    52    53     9 
   46    44    52    54     9 
   46    44    52    55     9 
   44    46    47    48     9 
   44    46    47    49     9 
   46    47    49    50     9 
   46    47    49    51     9 
   46    47    49   155     9 
   48    47    49    50     9 
   48    47    49    51     9 
   48    47    49   155     9 
   47    49   155   156     9 
   47    49   155   157     9 
   47    49   155   158     9 
   50    49   155   156     9 
   50    49   155   157     9 
   50    49   155   158     9 
   51    49   155   156     9 
   51    49   155   157     9 
   51    49   155   158     9 
   44    52    55    56     9 
   53    52    55    56     9 
   54    52    55    56     9 
   52    55    56    57     9 
   52    55    56    58     9 
   55    56    58    59     9 
   55    56    58    60     9 
   55    56    58   202     9 
   57    56    58    59     9 
   57    56    58    60     9 
   57    56    58   202     9 
   56    58   202   203     9 
   56    58   202   204     9 
   56    58   202   205     9 
   59    58   202   203     9 
   59    58   202   204     9 
   59    58   202   205     9 
   60    58   202   203     9 
   60    58   202   204     9 
   60    58   202   205     9 
   32    61    64    65     9 
   32    61    64    66     9 
   32    61    64    67     9 
   62    61    64    65     9 
   62    61    64    66     9 
   62    61    64    67     9 
   63    61    64    65     9 
   63    61    64    66     9 
   63    61    64    67     9 
   61    64    67    68     9 
   61    64    67    69     9 
   61    64    67    70     9 
   65    64    67    68     9 
   65    64    67    69     9 
   65    64    67    70     9 
   66    64    67    68     9 
   66    64    67    69     9 
   66    64    67    70     9 
   64    67    70    71     9 
   64    67    70    72     9 
   64    67    70    73     9 
   68    67    70    71     9 
   68    67    70    72     9 
   68    67    70    73     9 
   69    67    70    71     9 
   69    67    70    72     9 
   69    67    70    73     9 
   67    70    73    74     9 
   67    70    73    75     9 
   67    70    73    76     9 
   71    70    73    74     9 
   71    70    73    75     9 
   71    70    73    76     9 
   72    70    73    74     9 
   72    70    73    75     9 
   72    70    73    76     9 
   70    73    76    77     9 
   70    73    76    78     9 
   70    73    76    79     9 
   74    73    76    77     9 
   74    73    76    78     9 
   74    73    76    79     9 
   75    73    76    77     9 
   75    73    76    78     9 
   75    73    76    79     9 
   73    76    79    80     9 
   73    76    79    81     9 
   77    76    79    80     9 
   77    76    79    81     9 
   78    76    79    80     9 
   78    76    79    81     9 
   76    79    81    82     9 
   76    79    81    83     9 
   80    79    81    82     9 
   80    79    81    83     9 
   79    81    83    84     9 
   79    81    83    85     9 
   79    81    83    86     9 
   82    81    83    84     9 
   82    81    83    85     9 
   82    81    83    86     9 
   81    83    86    87     9 
   81    83    86    88     9 
   81    83    86    89     9 
   84    83    86    87     9 
   84    83    86    88     9 
   84    83    86    89     9 
   85    83    86    87     9 
   85    83    86    88     9 
   85    83    86    89     9 
   83    86    89    90     9 
   83    86    89    91     9 
   83    86    89    92     9 
   87    86    89    90     9 
   87    86    89    91     9 
   87    86    89    92     9 
   88    86    89    90     9 
   88    86    89    91     9 
   88    86    89    92     9 
   86    89    92    93     9 
   86    89    92    94     9 
   86    89    92    95     9 
   90    89    92    93     9 
   90    89    92    94     9 
   90    89    92    95     9 
   91    89    92    93     9 
   91    89    92    94     9 
   91    89    92    95     9 
   89    92    95    96     9 
   89    92    95    97     9 
   89    92    95    98     9 
   93    92    95    96     9 
   93    92    95    97     9 
   93    92    95    98     9 
   94    92    95    96     9 
   94    92    95    97     9 
   94    92    95    98     9 
   92    95    98    99     9 
   92    95    98   100     9 
   92    95    98   101     9 
   96    95    98    99     9 
   96    95    98   100     9 
   96    95    98   101     9 
   97    95    98    99     9 
   97    95    98   100     9 
   97    95    98   101     9 
   95    98   101   102     9 
   95    98   101   103     9 
   95    98   101   104     9 
   99    98   101   102     9 
   99    98   101   103     9 
   99    98   101   104     9 
  100    98   101   102     9 
  100    98   101   103     9 
  100    98   101   104     9 
   98   101   104   105     9 
   98   101   104   106     9 
   98   101   104   107     9 
  102   101   104   105     9 
  102   101   104   106     9 
  102   101   104   107     9 
  103   101   104   105     9 
  103   101   104   106     9 
  103   101   104   107     9 
   41   108   111   112     9 
   41   108   111   113     9 
   41   108   111   114     9 
  109   108   111   112     9 
  109   108   111   113     9 
  109   108   111   114     9 
  110   108   111   112     9 
  110   108   111   113     9 
  110   108   111   114     9 
  108   111   114   115     9 
  108   111   114   116     9 
  108   111   114   117     9 
  112   111   114   115     9 
  112   111   114   116     9 
  112   111   114   117     9 
  113   111   114   115     9 
  113   111   114   116     9 
  113   111   114   117     9 
  111   114   117   118     9 
  111   114   117   119     9 
  111   114   117   120     9 
  115   114   117   118     9 
  115   114   117   119     9 
  115   114   117   120     9 
  116   114   117   118     9 
  116   114   117   119     9 
  116   114   117   120     9 
  114   117   120   121     9 
  114   117   120   122     9 
  114   117   120   123     9 
  118   117   120   121     9 
  118   117   120   122     9 
  118   117   120   123     9 
  119   117   120   121     9 
  119   117   120   122     9 
  119   117   120   123     9 
  117   120   123   124     9 
  117   120   123   125     9 
  117   120   123   126     9 
  121   120   123   124     9 
  121   120   123   125     9 
  121   120   123   126     9 
  122   120   123   124     9 
  122   120   123   125     9 
  122   120   123   126     9 
  120   123   126   127     9 
  120   123   126   128     9 
  124   123   126   127     9 
  124   123   126   128     9 
  125   123   126   127     9 
  125   123   126   128     9 
  123   126   128   129     9 
  123   126   128   130     9 
  127   126   128   129     9 
  127   126   128   130     9 
  126   128   130   131     9 
  126   128   130   132     9 
  126   128   130   133     9 
  129   128   130   131     9 
  129   128   130   132     9 
  129   128   130   133     9 
  128   130   133   134     9 
  128   130   133   135     9 
  128   130   133   136     9 
  131   130   133   134     9 
  131   130   133   135     9 
  131   130   133   136     9 
  132   130   133   134     9 
  132   130   133   135     9 
  132   130   133   136     9 
  130   133   136   137     9 
  130   133   136   138     9 
  130   133   136   139     9 
  134   133   136   137     9 
  134   133   136   138     9 
  134   133   136   139     9 
  135   133   136   137     9 
  135   133   136   138     9 
  135   133   136   139     9 
  133   136   139   140     9 
  133   136   139   141     9 
  133   136   139   142     9 
  137   136   139   140     9 
  137   136   139   141     9 
  137   136   139   142     9 
  138   136   139   140     9 
  138   136   139   141     9 
  138   136   139   142     9 
  136   139   142   143     9 
  136   139   142   144     9 
  136   139   142   145     9 
  140   139   142   143     9 
  140   139   142   144     9 
  140   139   142   145     9 
  141   139   142   143     9 
  141   139   142   144     9 
  141   139   142   145     9 
  139   142   145   146     9 
  139   142   145   147     9 
  139   142   145   148     9 
  143   142   145   146     9 
  143   142   145   147     9 
  143   142   145   148     9 
  144   142   145   146     9 
  144   142   145   147     9 
  144   142   145   148     9 
  142   145   148   149     9 
  142   145   148   150     9 
  142   145   148   151     9 
  146   145   148   149     9 
  146   145   148   150     9 
  146   145   148   151     9 
  147   145   148   149     9 
  147   145   148   150     9 
  147   145   148   151     9 
  145   148   151   152     9 
  145   148   151   153     9 
  145   148   151   154     9 
  149   148   151   152     9 
  149   148   151   153     9 
  149   148   151   154     9 
  150   148   151   152     9 
  150   148   151   153     9 
  150   148   151   154     9 
   49   155   158   159     9 
   49   155   158   160     9 
   49   155   158   161     9 
  156   155   158   159     9 
  156   155   158   160     9 
  156   155   158   161     9 
  157   155   158   159     9 
  157   155   158   160     9 
  157   155   158   161     9 
  155   158   161   162     9 
  155   158   161   163     9 
  155   158   161   164     9 
  159   158   161   162     9 
  159   158   161   163     9 
  159   158   161   164     9 
  160   158   161   162     9 
  160   158   161   163     9 
  160   158   161   164     9 
  158   161   164   165     9 
  158   161   164   166     9 
  158   161   164   167     9 
  162   161   164   165     9 
  162   161   164   166     9 
  162   161   164   167     9 
  163   161   164   165     9 
  163   161   164   166     9 
  163   161   164   167     9 
  161   164   167   168     9 
  161   164   167   169     9 
  161   164   167   170     9 
  165   164   167   168     9 
  165   164   167   169     9 
  165   164   167   170     9 
  166   164   167   168     9 
  166   164   167   169     9 
  166   164   167   170     9 
  164   167   170   171     9 
  164   167   170   172     9 
  164   167   170   173     9 
  168   167   170   171     9 
  168   167   170   172     9 
  168   167   170   173     9 
  169   167   170   171     9 
  169   167   170   172     9 
  169   167   170   173     9 
  167   170   173   174     9 
  167   170   173   175     9 
  171   170   173   174     9 
  171   170   173   175     9 
  172   170   173   174     9 
  172   170   173   175     9 
  170   173   175   176     9 
  170   173   175   177     9 
  174   173   175   176     9 
  174   173   175   177     9 
  173   175   177   178     9 
  173   175   177   179     9 
  173   175   177   180     9 
  176   175   177   178     9 
  176   175   177   179     9 
  176   175   177   180     9 
  175   177   180   181     9 
  175   177   180   182     9 
  175   177   180   183     9 
  178   177   180   181     9 
  178   177   180   182     9 
  178   177   180   183     9 
  179   177   180   181     9 
  179   177   180   182     9 
  179   177   180   183     9 
  177   180   183   184     9 
  177   180   183   185     9 
  177   180   183   186     9 
  181   180   183   184     9 
  181   180   183   185     9 
  181   180   183   186     9 
  182   180   183   184     9 
  182   180   183   185     9 
  182   180   183   186     9 
  180   183   186   187     9 
  180   183   186   188     9 
  180   183   186   189     9 
  184   183   186   187     9 
  184   183   186   188     9 
  184   183   186   189     9 
  185   183   186   187     9 
  185   183   186   188     9 
  185   183   186   189     9 
  183   186   189   190     9 
  183   186   189   191     9 
  183   186   189   192     9 
  187   186   189   190     9 
  187   186   189   191     9 
  187   186   189   192     9 
  188   186   189   190     9 
  188   186   189   191     9 
  188   186   189   192     9 
  186   189   192   193     9 
  186   189   192   194     9 
  186   189   192   195     9 
  190   189   192   193     9 
  190   189   192   194     9 
  190   189   192   195     9 
  191   189   192   193     9 
  191   189   192   194     9 
  191   189   192   195     9 
  189   192   195   196     9 
  189   192   195   197     9 
  189   192   195   198     9 
  193   192   195   196     9 
  193   192   195   197     9 
  193   192   195   198     9 
  194   192   195   196     9 
  194   192   195   197     9 
  194   192   195   198     9 
  192   195   198   199     9 
  192   195   198   200     9 
  192   195   198   201     9 
  196   195   198   199     9 
  196   195   198   200     9 
  196   195   198   201     9 
  197   195   198   199     9 
  197   195   198   200     9 
  197   195   198   201     9 
   58   202   205   206     9 
   58   202   205   207     9 
   58   202   205   208     9 
  203   202   205   206     9 
  203   202   205   207     9 
  203   202   205   208     9 
  204   202   205   206     9 
  204   202   205   207     9 
  204   202   205   208     9 
  202   205   208   209     9 
  202   205   208   210     9 
  202   205   208   211     9 
  206   205   208   209     9 
  206   205   208   210     9 
  206   205   208   211     9 
  207   205   208   209     9 
  207   205   208   210     9 
  207   205   208   211     9 
  205   208   211   212     9 
  205   208   211   213     9 
  205   208   211   214     9 
  209   208   211   212     9 
  209   208   211   213     9 
  209   208   211   214     9 
  210   208   211   212     9 
  210   208   211   213     9 
  210   208   211   214     9 
  208   211   214   215     9 
  208   211   214   216     9 
  208   211   214   217     9 
  212   211   214   215     9 
  212   211   214   216     9 
  212   211   214   217     9 
  213   211   214   215     9 
  213   211   214   216     9 
  213   211   214   217     9 
  211   214   217   218     9 
  211   214   217   219     9 
  211   214   217   220     9 
  215   214   217   218     9 
  215   214   217   219     9 
  215   214   217   220     9 
  216   214   217   218     9 
  216   214   217   219     9 
  216   214   217   220     9 
  214   217   220   221     9 
  214   217   220   222     9 
  218   217   220   221     9 
  218   217   220   222     9 
  219   217   220   221     9 
  219   217   220   222     9 
  217   220   222   223     9 
  217   220   222   224     9 
  221   220   222   223     9 
  221   220   222   224     9 
  220   222   224   225     9 
  220   222   224   226     9 
  220   222   224   227     9 
  223   222   224   225     9 
  223   222   224   226     9 
  223   222   224   227     9 
  222   224   227   228     9 
  222   224   227   229     9 
  222   224   227   230     9 
  225   224   227   228     9 
  225   224   227   229     9 
  225   224   227   230     9 
  226   224   227   228     9 
  226   224   227   229     9 
  226   224   227   230     9 
  224   227   230   231     9 
  224   227   230   232     9 
  224   227   230   233     9 
  228   227   230   231     9 
  228   227   230   232     9 
  228   227   230   233     9 
  229   227   230   231     9 
  229   227   230   232     9 
  229   227   230   233     9 
  227   230   233   234     9 
  227   230   233   235     9 
  227   230   233   236     9 
  231   230   233   234     9 
  231   230   233   235     9 
  231   230   233   236     9 
  232   230   233   234     9 
  232   230   233   235     9 
  232   230   233   236     9 
  230   233   236   237     9 
  230   233   236   238     9 
  230   233   236   239     9 
  234   233   236   237     9 
  234   233   236   238     9 
  234   233   236   239     9 
  235   233   236   237     9 
  235   233   236   238     9 
  235   233   236   239     9 
  233   236   239   240     9 
  233   236   239   241     9 
  233   236   239   242     9 
  237   236   239   240     9 
  237   236   239   241     9 
  237   236   239   242     9 
  238   236   239   240     9 
  238   236   239   241     9 
  238   236   239   242     9 
  236   239   242   243     9 
  236   239   242   244     9 
  236   239   242   245     9 
  240   239   242   243     9 
  240   239   242   244     9 
  240   239   242   245     9 
  241   239   242   243     9 
  241   239   242   244     9 
  241   239   242   245     9 
  239   242   245   246     9 
  239   242   245   247     9 
  239   242   245   248     9 
  243   242   245   246     9 
  243   242   245   247     9 
  243   242   245   248     9 
  244   242   245   246     9 
  244   242   245   247     9 
  244   242   245   248     9 

[ dihedrals ]
;  ai    aj    ak    al funct            c0            c1            c2            c3
   30    29    32    31     2 
   39    38    41    40     2 
   47    46    49    48     2 
   56    55    58    57     2 

; Include Position restraint file
#ifdef POSRES
#include "TOCL_posre.itp"
#endif

